version 2
run statisticRVV-184-20150325-22:24:45-23660
attr c 7
attr configname statisticRVV
attr datetime 20150325-22:24:45
attr experiment statisticRVV
attr inifile omnetpp.ini
attr iterationvars "$sc=\"erlangen-medium.launchd.xml\", $p=1/8, $c=7"
attr iterationvars2 "$sc=\"erlangen-medium.launchd.xml\", $p=1/8, $c=7, $repetition=4"
attr measurement "$sc=\"erlangen-medium.launchd.xml\", $p=1/8, $c=7"
attr network RSUExampleScenario
attr p 1/8
attr processid 23660
attr repetition 4
attr replication #4
attr resultdir results
attr runnumber 184
attr sc "\"erlangen-medium.launchd.xml\""
attr seedset 184

vector 0  RSUExampleScenario.rsu[0].appl  Number_CH  ETV
vector 1  RSUExampleScenario.rsu[0].appl  Number_ON  ETV
vector 2  RSUExampleScenario.rsu[0].appl  Number_FN  ETV
vector 3  RSUExampleScenario.rsu[0].appl  Number_CH_Losts  ETV
vector 4  RSUExampleScenario.rsu[0].appl  Mean_Cluster_Size  ETV
vector 5  RSUExampleScenario.rsu[0].appl  StdDev_Cluster_Size  ETV
vector 6  RSUExampleScenario.rsu[0].appl  Variance_Cluster_Size  ETV
vector 7  RSUExampleScenario.rsu[0].appl  Mean_Neighbors  ETV
vector 8  RSUExampleScenario.rsu[0].appl  StdDev_Neighbors  ETV
vector 9  RSUExampleScenario.rsu[0].appl  Variance_Neighbors  ETV
vector 10  RSUExampleScenario.rsu[0].appl  Total_CH_Utility  ETV
vector 11  RSUExampleScenario.rsu[0].appl  Mean_CH_Utility  ETV
vector 12  RSUExampleScenario.rsu[0].appl  StdDev_CH_Utility  ETV
vector 13  RSUExampleScenario.rsu[0].appl  Variance_CH_Utility  ETV
vector 14  RSUExampleScenario.rsu[0].appl  Total_exp_CH_Utility  ETV
vector 15  RSUExampleScenario.rsu[0].appl  Mean_exp_CH_Utility  ETV
vector 16  RSUExampleScenario.rsu[0].appl  StdDev_exp_CH_Utility  ETV
vector 17  RSUExampleScenario.rsu[0].appl  Variance_exp_CH_Utility  ETV
vector 18  RSUExampleScenario.rsu[0].appl  Total_ON_Utility  ETV
vector 19  RSUExampleScenario.rsu[0].appl  Mean_ON_Utility  ETV
vector 20  RSUExampleScenario.rsu[0].appl  StdDev_ON_Utility  ETV
vector 21  RSUExampleScenario.rsu[0].appl  Variance_ON_Utility  ETV
vector 22  RSUExampleScenario.rsu[0].appl  Total_exp_ON_Utility  ETV
vector 23  RSUExampleScenario.rsu[0].appl  Mean_exp_ON_Utility  ETV
vector 24  RSUExampleScenario.rsu[0].appl  StdDev_exp_ON_Utility  ETV
vector 25  RSUExampleScenario.rsu[0].appl  Variance_exp_ON_Utility  ETV
0	145646	240	6
0	171392	260	9
0	198417	280	11
0	225579	300	9
0	252918	320	9
0	280223	340	15
0	307308	360	12
0	334708	380	8
0	362388	400	11
0	390484	420	11
0	419206	440	11
0	448317	460	12
0	478237	480	14
0	508865	500	12
0	539751	520	8
0	571461	540	8
0	603673	560	10
0	636979	580	10
0	671058	600	9
0	705573	620	6
0	741712	640	12
0	778524	660	9
0	816944	680	7
0	856302	700	17
0	896808	720	11
0	938633	740	15
0	981885	760	6
0	1026007	780	12
0	1071864	800	11
0	1118414	820	9
0	1165435	840	9
0	1214186	860	13
0	1263928	880	18
0	1315358	900	16
0	1367919	920	12
0	1421961	940	12
0	1476759	960	17
0	1533092	980	17
0	1590938	1000	13
0	1649857	1020	13
0	1710356	1040	15
0	1772458	1060	16
0	1836089	1080	15
0	1901189	1100	16
0	1968224	1120	14
0	2037033	1140	15
0	2107669	1160	12
0	2180255	1180	13
0	2254646	1200	11
0	2330876	1220	11
0	2408871	1240	18
0	2489886	1260	17
0	2572590	1280	17
0	2656929	1300	15
0	2743173	1320	10
0	2831625	1340	13
0	2922186	1360	15
0	3014552	1380	18
0	3108730	1400	18
0	3206514	1420	11
0	3306446	1440	19
0	3407667	1460	14
0	3510987	1480	18
0	3616760	1500	13
0	3724343	1520	17
0	3834934	1540	19
0	3948511	1560	14
0	4063337	1580	15
0	4180683	1600	12
0	4301756	1620	16
0	4424177	1640	19
0	4548847	1660	17
0	4675816	1680	18
0	4805059	1700	18
0	4936387	1720	17
0	5070752	1740	13
0	5207487	1760	23
0	5346370	1780	19
0	5487847	1800	22
0	5631351	1820	17
0	5777581	1840	12
0	5927170	1860	16
0	6079897	1880	18
0	6234600	1900	20
0	6391083	1920	22
0	6550388	1940	27
0	6712151	1960	28
0	6876535	1980	17
0	7043268	2000	13
1	145646	240	9
1	171392	260	13
1	198417	280	15
1	225579	300	13
1	252918	320	11
1	280223	340	23
1	307308	360	15
1	334708	380	9
1	362388	400	15
1	390484	420	12
1	419206	440	14
1	448317	460	19
1	478237	480	18
1	508865	500	16
1	539751	520	11
1	571461	540	9
1	603673	560	14
1	636979	580	13
1	671058	600	9
1	705573	620	9
1	741712	640	16
1	778524	660	10
1	816944	680	9
1	856302	700	21
1	896808	720	13
1	938633	740	22
1	981885	760	8
1	1026007	780	16
1	1071864	800	17
1	1118414	820	9
1	1165435	840	12
1	1214186	860	16
1	1263928	880	21
1	1315358	900	22
1	1367919	920	17
1	1421961	940	18
1	1476759	960	25
1	1533092	980	28
1	1590938	1000	19
1	1649857	1020	20
1	1710356	1040	19
1	1772458	1060	25
1	1836089	1080	19
1	1901189	1100	23
1	1968224	1120	21
1	2037033	1140	22
1	2107669	1160	18
1	2180255	1180	19
1	2254646	1200	15
1	2330876	1220	18
1	2408871	1240	27
1	2489886	1260	22
1	2572590	1280	25
1	2656929	1300	23
1	2743173	1320	15
1	2831625	1340	20
1	2922186	1360	21
1	3014552	1380	23
1	3108730	1400	24
1	3206514	1420	14
1	3306446	1440	29
1	3407667	1460	17
1	3510987	1480	24
1	3616760	1500	20
1	3724343	1520	25
1	3834934	1540	27
1	3948511	1560	22
1	4063337	1580	23
1	4180683	1600	18
1	4301756	1620	20
1	4424177	1640	29
1	4548847	1660	25
1	4675816	1680	26
1	4805059	1700	24
1	4936387	1720	24
1	5070752	1740	17
1	5207487	1760	28
1	5346370	1780	26
1	5487847	1800	34
1	5631351	1820	24
1	5777581	1840	15
1	5927170	1860	23
1	6079897	1880	27
1	6234600	1900	30
1	6391083	1920	29
1	6550388	1940	38
1	6712151	1960	38
1	6876535	1980	28
1	7043268	2000	20
2	145646	240	64
2	171392	260	63
2	198417	280	66
2	225579	300	71
2	252918	320	73
2	280223	340	57
2	307308	360	67
2	334708	380	78
2	362388	400	69
2	390484	420	74
2	419206	440	74
2	448317	460	69
2	478237	480	68
2	508865	500	72
2	539751	520	84
2	571461	540	86
2	603673	560	82
2	636979	580	85
2	671058	600	91
2	705573	620	94
2	741712	640	82
2	778524	660	93
2	816944	680	96
2	856302	700	77
2	896808	720	92
2	938633	740	79
2	981885	760	103
2	1026007	780	92
2	1071864	800	94
2	1118414	820	104
2	1165435	840	100
2	1214186	860	94
2	1263928	880	87
2	1315358	900	88
2	1367919	920	100
2	1421961	940	100
2	1476759	960	88
2	1533092	980	87
2	1590938	1000	102
2	1649857	1020	101
2	1710356	1040	101
2	1772458	1060	95
2	1836089	1080	104
2	1901189	1100	100
2	1968224	1120	105
2	2037033	1140	105
2	2107669	1160	112
2	2180255	1180	112
2	2254646	1200	120
2	2330876	1220	117
2	2408871	1240	103
2	2489886	1260	111
2	2572590	1280	108
2	2656929	1300	113
2	2743173	1320	127
2	2831625	1340	122
2	2922186	1360	118
2	3014552	1380	116
2	3108730	1400	116
2	3206514	1420	134
2	3306446	1440	112
2	3407667	1460	131
2	3510987	1480	119
2	3616760	1500	131
2	3724343	1520	122
2	3834934	1540	121
2	3948511	1560	133
2	4063337	1580	130
2	4180683	1600	140
2	4301756	1620	134
2	4424177	1640	125
2	4548847	1660	134
2	4675816	1680	130
2	4805059	1700	134
2	4936387	1720	137
2	5070752	1740	149
2	5207487	1760	131
2	5346370	1780	136
2	5487847	1800	126
2	5631351	1820	143
2	5777581	1840	157
2	5927170	1860	146
2	6079897	1880	142
2	6234600	1900	140
2	6391083	1920	139
2	6550388	1940	127
2	6712151	1960	126
2	6876535	1980	149
2	7043268	2000	163
3	145646	240	6
3	171392	260	3
3	198417	280	6
3	225579	300	1
3	252918	320	0
3	280223	340	5
3	307308	360	4
3	334708	380	2
3	362388	400	2
3	390484	420	3
3	419206	440	6
3	448317	460	1
3	478237	480	2
3	508865	500	1
3	539751	520	4
3	571461	540	3
3	603673	560	5
3	636979	580	2
3	671058	600	4
3	705573	620	3
3	741712	640	1
3	778524	660	2
3	816944	680	2
3	856302	700	1
3	896808	720	3
3	938633	740	3
3	981885	760	4
3	1026007	780	4
3	1071864	800	5
3	1118414	820	2
3	1165435	840	4
3	1214186	860	3
3	1263928	880	8
3	1315358	900	1
3	1367919	920	0
3	1421961	940	5
3	1476759	960	3
3	1533092	980	3
3	1590938	1000	5
3	1649857	1020	1
3	1710356	1040	4
3	1772458	1060	1
3	1836089	1080	3
3	1901189	1100	5
3	1968224	1120	2
3	2037033	1140	1
3	2107669	1160	0
3	2180255	1180	7
3	2254646	1200	4
3	2330876	1220	3
3	2408871	1240	3
3	2489886	1260	1
3	2572590	1280	3
3	2656929	1300	3
3	2743173	1320	2
3	2831625	1340	5
3	2922186	1360	6
3	3014552	1380	8
3	3108730	1400	3
3	3206514	1420	2
3	3306446	1440	5
3	3407667	1460	4
3	3510987	1480	2
3	3616760	1500	2
3	3724343	1520	5
3	3834934	1540	2
3	3948511	1560	9
3	4063337	1580	1
3	4180683	1600	4
3	4301756	1620	3
3	4424177	1640	7
3	4548847	1660	9
3	4675816	1680	7
3	4805059	1700	5
3	4936387	1720	7
3	5070752	1740	5
3	5207487	1760	5
3	5346370	1780	5
3	5487847	1800	2
3	5631351	1820	3
3	5777581	1840	3
3	5927170	1860	4
3	6079897	1880	7
3	6234600	1900	8
3	6391083	1920	3
3	6550388	1940	3
3	6712151	1960	6
3	6876535	1980	7
3	7043268	2000	6
4	145646	240	1.5
4	171392	260	1.4444444444444
4	198417	280	1.3636363636364
4	225579	300	1.4444444444444
4	252918	320	1.2222222222222
4	280223	340	1.5333333333333
4	307308	360	1.25
4	334708	380	1.125
4	362388	400	1.3636363636364
4	390484	420	1.0909090909091
4	419206	440	1.2727272727273
4	448317	460	1.5833333333333
4	478237	480	1.2857142857143
4	508865	500	1.3333333333333
4	539751	520	1.375
4	571461	540	1.125
4	603673	560	1.4
4	636979	580	1.3
4	671058	600	1
4	705573	620	1.5
4	741712	640	1.3333333333333
4	778524	660	1.1111111111111
4	816944	680	1.2857142857143
4	856302	700	1.2352941176471
4	896808	720	1.1818181818182
4	938633	740	1.4666666666667
4	981885	760	1.3333333333333
4	1026007	780	1.3333333333333
4	1071864	800	1.5454545454545
4	1118414	820	1
4	1165435	840	1.3333333333333
4	1214186	860	1.2307692307692
4	1263928	880	1.1666666666667
4	1315358	900	1.375
4	1367919	920	1.4166666666667
4	1421961	940	1.5
4	1476759	960	1.4705882352941
4	1533092	980	1.6470588235294
4	1590938	1000	1.4615384615385
4	1649857	1020	1.5384615384615
4	1710356	1040	1.2666666666667
4	1772458	1060	1.5625
4	1836089	1080	1.2666666666667
4	1901189	1100	1.4375
4	1968224	1120	1.5
4	2037033	1140	1.4666666666667
4	2107669	1160	1.5
4	2180255	1180	1.4615384615385
4	2254646	1200	1.3636363636364
4	2330876	1220	1.6363636363636
4	2408871	1240	1.5
4	2489886	1260	1.2941176470588
4	2572590	1280	1.4705882352941
4	2656929	1300	1.5333333333333
4	2743173	1320	1.5
4	2831625	1340	1.5384615384615
4	2922186	1360	1.4
4	3014552	1380	1.2777777777778
4	3108730	1400	1.3333333333333
4	3206514	1420	1.2727272727273
4	3306446	1440	1.5263157894737
4	3407667	1460	1.2142857142857
4	3510987	1480	1.3333333333333
4	3616760	1500	1.5384615384615
4	3724343	1520	1.4705882352941
4	3834934	1540	1.4210526315789
4	3948511	1560	1.5714285714286
4	4063337	1580	1.5333333333333
4	4180683	1600	1.5
4	4301756	1620	1.25
4	4424177	1640	1.5263157894737
4	4548847	1660	1.4705882352941
4	4675816	1680	1.4444444444444
4	4805059	1700	1.3333333333333
4	4936387	1720	1.4117647058824
4	5070752	1740	1.3076923076923
4	5207487	1760	1.2173913043478
4	5346370	1780	1.3684210526316
4	5487847	1800	1.5454545454545
4	5631351	1820	1.4117647058824
4	5777581	1840	1.25
4	5927170	1860	1.4375
4	6079897	1880	1.5
4	6234600	1900	1.5
4	6391083	1920	1.3181818181818
4	6550388	1940	1.4074074074074
4	6712151	1960	1.3571428571429
4	6876535	1980	1.6470588235294
4	7043268	2000	1.5384615384615
5	145646	240	0.54772255750517
5	171392	260	0.72648315725678
5	198417	280	0.67419986246324
5	225579	300	0.72648315725678
5	252918	320	0.4409585518441
5	280223	340	0.51639777949432
5	307308	360	0.45226701686665
5	334708	380	0.35355339059327
5	362388	400	0.50452497910951
5	390484	420	0.30151134457776
5	419206	440	0.46709936649691
5	448317	460	0.51492865054444
5	478237	480	0.4688072309385
5	508865	500	0.49236596391733
5	539751	520	0.51754916950677
5	571461	540	0.35355339059327
5	603673	560	0.51639777949432
5	636979	580	0.48304589153965
5	671058	600	0
5	705573	620	0.54772255750517
5	741712	640	0.49236596391733
5	778524	660	0.33333333333333
5	816944	680	0.48795003647427
5	856302	700	0.4372373160976
5	896808	720	0.40451991747795
5	938633	740	0.51639777949432
5	981885	760	0.51639777949432
5	1026007	780	0.49236596391733
5	1071864	800	0.52223296786709
5	1118414	820	0
5	1165435	840	0.5
5	1214186	860	0.43852900965351
5	1263928	880	0.38348249442369
5	1315358	900	0.61913918736689
5	1367919	920	0.51492865054444
5	1421961	940	0.52223296786709
5	1476759	960	0.51449575542753
5	1533092	980	0.49259218307189
5	1590938	1000	0.51887452166277
5	1649857	1020	0.51887452166277
5	1710356	1040	0.45773770821706
5	1772458	1060	0.51234753829798
5	1836089	1080	0.45773770821706
5	1901189	1100	0.51234753829798
5	1968224	1120	0.51887452166277
5	2037033	1140	0.51639777949432
5	2107669	1160	0.52223296786709
5	2180255	1180	0.51887452166277
5	2254646	1200	0.50452497910951
5	2330876	1220	0.50452497910951
5	2408871	1240	0.51449575542753
5	2489886	1260	0.46966821831386
5	2572590	1280	0.51449575542753
5	2656929	1300	0.51639777949432
5	2743173	1320	0.52704627669473
5	2831625	1340	0.51887452166277
5	2922186	1360	0.50709255283711
5	3014552	1380	0.46088859896248
5	3108730	1400	0.48507125007267
5	3206514	1420	0.46709936649691
5	3306446	1440	0.51298917604258
5	3407667	1460	0.42581531362632
5	3510987	1480	0.48507125007267
5	3616760	1500	0.51887452166277
5	3724343	1520	0.51449575542753
5	3834934	1540	0.50725727350179
5	3948511	1560	0.5135525910131
5	4063337	1580	0.51639777949432
5	4180683	1600	0.52223296786709
5	4301756	1620	0.44721359549996
5	4424177	1640	0.51298917604258
5	4548847	1660	0.51449575542753
5	4675816	1680	0.51130999256491
5	4805059	1700	0.48507125007267
5	4936387	1720	0.50729965619589
5	5070752	1740	0.48038446141526
5	5207487	1760	0.42174116783665
5	5346370	1780	0.49559462778335
5	5487847	1800	0.5958006000151
5	5631351	1820	0.50729965619589
5	5777581	1840	0.45226701686665
5	5927170	1860	0.51234753829798
5	6079897	1880	0.51449575542753
5	6234600	1900	0.51298917604258
5	6391083	1920	0.4767312946228
5	6550388	1940	0.50071174413254
5	6712151	1960	0.48795003647427
5	6876535	1980	0.49259218307189
5	7043268	2000	0.51887452166277
6	145646	240	0.3
6	171392	260	0.52777777777778
6	198417	280	0.45454545454545
6	225579	300	0.52777777777778
6	252918	320	0.19444444444444
6	280223	340	0.26666666666667
6	307308	360	0.20454545454545
6	334708	380	0.125
6	362388	400	0.25454545454545
6	390484	420	0.090909090909091
6	419206	440	0.21818181818182
6	448317	460	0.26515151515152
6	478237	480	0.21978021978022
6	508865	500	0.24242424242424
6	539751	520	0.26785714285714
6	571461	540	0.125
6	603673	560	0.26666666666667
6	636979	580	0.23333333333333
6	671058	600	0
6	705573	620	0.3
6	741712	640	0.24242424242424
6	778524	660	0.11111111111111
6	816944	680	0.23809523809524
6	856302	700	0.19117647058824
6	896808	720	0.16363636363636
6	938633	740	0.26666666666667
6	981885	760	0.26666666666667
6	1026007	780	0.24242424242424
6	1071864	800	0.27272727272727
6	1118414	820	0
6	1165435	840	0.25
6	1214186	860	0.19230769230769
6	1263928	880	0.14705882352941
6	1315358	900	0.38333333333333
6	1367919	920	0.26515151515152
6	1421961	940	0.27272727272727
6	1476759	960	0.26470588235294
6	1533092	980	0.24264705882353
6	1590938	1000	0.26923076923077
6	1649857	1020	0.26923076923077
6	1710356	1040	0.20952380952381
6	1772458	1060	0.2625
6	1836089	1080	0.20952380952381
6	1901189	1100	0.2625
6	1968224	1120	0.26923076923077
6	2037033	1140	0.26666666666667
6	2107669	1160	0.27272727272727
6	2180255	1180	0.26923076923077
6	2254646	1200	0.25454545454545
6	2330876	1220	0.25454545454545
6	2408871	1240	0.26470588235294
6	2489886	1260	0.22058823529412
6	2572590	1280	0.26470588235294
6	2656929	1300	0.26666666666667
6	2743173	1320	0.27777777777778
6	2831625	1340	0.26923076923077
6	2922186	1360	0.25714285714286
6	3014552	1380	0.21241830065359
6	3108730	1400	0.23529411764706
6	3206514	1420	0.21818181818182
6	3306446	1440	0.26315789473684
6	3407667	1460	0.18131868131868
6	3510987	1480	0.23529411764706
6	3616760	1500	0.26923076923077
6	3724343	1520	0.26470588235294
6	3834934	1540	0.25730994152047
6	3948511	1560	0.26373626373626
6	4063337	1580	0.26666666666667
6	4180683	1600	0.27272727272727
6	4301756	1620	0.2
6	4424177	1640	0.26315789473684
6	4548847	1660	0.26470588235294
6	4675816	1680	0.26143790849673
6	4805059	1700	0.23529411764706
6	4936387	1720	0.25735294117647
6	5070752	1740	0.23076923076923
6	5207487	1760	0.17786561264822
6	5346370	1780	0.24561403508772
6	5487847	1800	0.35497835497836
6	5631351	1820	0.25735294117647
6	5777581	1840	0.20454545454545
6	5927170	1860	0.2625
6	6079897	1880	0.26470588235294
6	6234600	1900	0.26315789473684
6	6391083	1920	0.22727272727273
6	6550388	1940	0.25071225071225
6	6712151	1960	0.23809523809524
6	6876535	1980	0.24264705882353
6	7043268	2000	0.26923076923077
7	145646	240	22.379746835443
7	171392	260	22.564705882353
7	198417	280	22.228260869565
7	225579	300	22.290322580645
7	252918	320	22.494623655914
7	280223	340	22.115789473684
7	307308	360	22.159574468085
7	334708	380	22.106382978723
7	362388	400	22.351063829787
7	390484	420	22.020833333333
7	419206	440	22.151515151515
7	448317	460	22.060606060606
7	478237	480	22.21
7	508865	500	22.65
7	539751	520	22.533980582524
7	571461	540	22.708737864078
7	603673	560	22.77358490566
7	636979	580	23.111111111111
7	671058	600	23.407407407407
7	705573	620	23.899082568807
7	741712	640	24.572727272727
7	778524	660	25
7	816944	680	25.508928571429
7	856302	700	25.791304347826
7	896808	720	26.396551724138
7	938633	740	27.01724137931
7	981885	760	27.57264957265
7	1026007	780	28.158333333333
7	1071864	800	28.702479338843
7	1118414	820	29.032786885246
7	1165435	840	28.793388429752
7	1214186	860	29.317073170732
7	1263928	880	29.592
7	1315358	900	30.293650793651
7	1367919	920	30.240310077519
7	1421961	940	30.561538461538
7	1476759	960	31.147286821705
7	1533092	980	31.568181818182
7	1590938	1000	32.037313432836
7	1649857	1020	32.39552238806
7	1710356	1040	32.762962962963
7	1772458	1060	33.607407407407
7	1836089	1080	33.782608695652
7	1901189	1100	34.194244604317
7	1968224	1120	35.410071942446
7	2037033	1140	35.5
7	2107669	1160	36.577464788732
7	2180255	1180	36.875
7	2254646	1200	37.63698630137
7	2330876	1220	38.551724137931
7	2408871	1240	39.175675675676
7	2489886	1260	40.134228187919
7	2572590	1280	40.852348993289
7	2656929	1300	41.662251655629
7	2743173	1320	42.026490066225
7	2831625	1340	41.870967741935
7	2922186	1360	43.577922077922
7	3014552	1380	43.541401273885
7	3108730	1400	44.405063291139
7	3206514	1420	45.433962264151
7	3306446	1440	46.49375
7	3407667	1460	46.66049382716
7	3510987	1480	47.478260869565
7	3616760	1500	47.560975609756
7	3724343	1520	48.481707317073
7	3834934	1540	49.023952095808
7	3948511	1560	49.958579881657
7	4063337	1580	50.595238095238
7	4180683	1600	50.694117647059
7	4301756	1620	52.094117647059
7	4424177	1640	52.529069767442
7	4548847	1660	52.182857142857
7	4675816	1680	53.32183908046
7	4805059	1700	53.431818181818
7	4936387	1720	53.943820224719
7	5070752	1740	54.379888268156
7	5207487	1760	54.89010989011
7	5346370	1780	55.806629834254
7	5487847	1800	56.417582417582
7	5631351	1820	56.472826086957
7	5777581	1840	57.25
7	5927170	1860	58.048648648649
7	6079897	1880	58.786096256684
7	6234600	1900	58.784210526316
7	6391083	1920	59.873684210526
7	6550388	1940	60.204188481675
7	6712151	1960	60.755208333333
7	6876535	1980	61.345360824742
7	7043268	2000	62.041025641026
8	145646	240	5.1944343920233
8	171392	260	4.2940907869157
8	198417	280	5.1250371445871
8	225579	300	4.1087939761308
8	252918	320	4.135276805608
8	280223	340	4.1867652620445
8	307308	360	4.999576737976
8	334708	380	4.6500504913582
8	362388	400	4.4182112052217
8	390484	420	4.5744810845584
8	419206	440	4.5878358162437
8	448317	460	4.3514440057371
8	478237	480	4.4296863559536
8	508865	500	4.0561089977983
8	539751	520	3.7594730908982
8	571461	540	4.1150871812202
8	603673	560	3.9334536354514
8	636979	580	3.8918398535247
8	671058	600	3.6736928809945
8	705573	620	3.3304013608874
8	741712	640	4.0330267071209
8	778524	660	3.9863403129825
8	816944	680	4.4539597438973
8	856302	700	5.1204708736564
8	896808	720	6.0244131019866
8	938633	740	5.7255837122146
8	981885	760	6.4558396971353
8	1026007	780	6.9391058844919
8	1071864	800	7.3921632243198
8	1118414	820	7.906409604254
8	1165435	840	7.6058281987915
8	1214186	860	8.6482416228233
8	1263928	880	9.3542262313404
8	1315358	900	9.8078070619828
8	1367919	920	9.8542306855026
8	1421961	940	9.8830399288348
8	1476759	960	9.7876682418441
8	1533092	980	11.232581549761
8	1590938	1000	11.243983665407
8	1649857	1020	11.963615678423
8	1710356	1040	12.262798618639
8	1772458	1060	12.135489029066
8	1836089	1080	13.121409000825
8	1901189	1100	13.78608713593
8	1968224	1120	14.027309259699
8	2037033	1140	14.440265807656
8	2107669	1160	15.056076713719
8	2180255	1180	15.54280127032
8	2254646	1200	16.171870058834
8	2330876	1220	17.034658719832
8	2408871	1240	17.190693660232
8	2489886	1260	18.055716216277
8	2572590	1280	18.62952315435
8	2656929	1300	19.172162951258
8	2743173	1320	19.093435877239
8	2831625	1340	20.039801200967
8	2922186	1360	20.405619650015
8	3014552	1380	21.194305731959
8	3108730	1400	21.680963493845
8	3206514	1420	22.663618395086
8	3306446	1440	22.893792758199
8	3407667	1460	23.222970952892
8	3510987	1480	23.881500936007
8	3616760	1500	24.687046135476
8	3724343	1520	24.985510540001
8	3834934	1540	25.483269280108
8	3948511	1560	26.086932285466
8	4063337	1580	25.9647937814
8	4180683	1600	26.327713267643
8	4301756	1620	26.294924265269
8	4424177	1640	26.532651698373
8	4548847	1660	27.151358274636
8	4675816	1680	27.162109894838
8	4805059	1700	27.626403707652
8	4936387	1720	27.580538274989
8	5070752	1740	27.786522438062
8	5207487	1760	28.186023945286
8	5346370	1780	28.537911630768
8	5487847	1800	28.630264840571
8	5631351	1820	28.879612954965
8	5777581	1840	29.354671200875
8	5927170	1860	29.310422742023
8	6079897	1880	30.085670136829
8	6234600	1900	30.183929343995
8	6391083	1920	30.299297879047
8	6550388	1940	30.652125937193
8	6712151	1960	31.021483418177
8	6876535	1980	31.164768604961
8	7043268	2000	31.582625377678
9	145646	240	26.982148653035
9	171392	260	18.439215686275
9	198417	280	26.266005733397
9	225579	300	16.882187938289
9	252918	320	17.100514259
9	280223	340	17.529003359462
9	307308	360	24.995767558911
9	334708	380	21.62296957218
9	362388	400	19.520590253946
9	390484	420	20.925877192982
9	419206	440	21.048237476809
9	448317	460	18.935064935065
9	478237	480	19.622121212121
9	508865	500	16.45202020202
9	539751	520	14.133637921188
9	571461	540	16.933942509042
9	603673	560	15.472057502246
9	636979	580	15.146417445483
9	671058	600	13.49601938387
9	705573	620	11.091573224601
9	741712	640	16.26530442035
9	778524	660	15.890909090909
9	816944	680	19.837757400257
9	856302	700	26.219221967963
9	896808	720	36.293553223388
9	938633	740	32.782308845577
9	981885	760	41.677866195108
9	1026007	780	48.15119047619
9	1071864	800	54.644077134986
9	1118414	820	62.51131283024
9	1165435	840	57.848622589532
9	1214186	860	74.792083166733
9	1263928	880	87.501548387097
9	1315358	900	96.193079365079
9	1367919	920	97.105862403101
9	1421961	940	97.674478234943
9	1476759	960	95.798449612403
9	1533092	980	126.17088827203
9	1590938	1000	126.42716866794
9	1649857	1020	143.128100101
9	1710356	1040	150.3762299613
9	1772458	1060	147.27009397457
9	1836089	1080	172.17137416693
9	1901189	1100	190.05619851945
9	1968224	1120	196.76540506725
9	2037033	1140	208.52127659574
9	2107669	1160	226.68544600939
9	2180255	1180	241.57867132867
9	2254646	1200	261.52938119981
9	2330876	1220	290.17959770115
9	2408871	1240	295.51994851995
9	2489886	1260	326.00888808271
9	2572590	1280	347.05913295846
9	2656929	1300	367.57183222958
9	2743173	1320	364.55929359823
9	2831625	1340	401.59363217428
9	2922186	1360	416.38931330108
9	3014552	1380	449.19859545974
9	3108730	1400	470.06417802145
9	3206514	1420	513.63959875806
9	3306446	1440	524.12574685535
9	3407667	1460	539.30637987884
9	3510987	1480	570.32608695652
9	3616760	1500	609.45024689511
9	3724343	1520	624.27573694449
9	3834934	1540	649.39701320251
9	3948511	1560	680.5280360665
9	4063337	1580	674.17051611064
9	4180683	1600	693.14848590324
9	4301756	1620	691.42304211625
9	4424177	1640	703.98160614715
9	4548847	1660	737.19625615764
9	4675816	1680	737.78021393927
9	4805059	1700	763.21818181818
9	4936387	1720	760.68609153812
9	5070752	1740	772.09082920093
9	5207487	1760	794.45194584421
9	5346370	1780	814.41240024555
9	5487847	1800	819.69206484124
9	5631351	1820	834.03204442861
9	5777581	1840	861.69672131148
9	5927170	1860	859.1008813161
9	6079897	1880	905.14754758208
9	6234600	1900	911.06959064327
9	6391083	1920	918.04745196324
9	6550388	1940	939.55282446955
9	6712151	1960	962.33243346422
9	6876535	1980	971.24280220074
9	7043268	2000	997.46222574676
10	145646	240	282.62102853652
10	171392	260	428.89934215598
10	198417	280	522.52874902719
10	225579	300	444.29589367692
10	252918	320	439.20978322153
10	280223	340	717.51158186844
10	307308	360	565.68567646036
10	334708	380	388.69806685778
10	362388	400	531.64276482685
10	390484	420	529.2672944108
10	419206	440	527.64492363297
10	448317	460	579.32164897555
10	478237	480	677.21063160086
10	508865	500	596.69126757498
10	539751	520	385.86904199773
10	571461	540	389.26330265725
10	603673	560	486.71602597075
10	636979	580	482.75877223487
10	671058	600	445.34994251561
10	705573	620	289.13782931279
10	741712	640	576.02774638202
10	778524	660	435.13253739825
10	816944	680	341.32018577427
10	856302	700	816.70997933036
10	896808	720	536.4842121341
10	938633	740	740.58103017886
10	981885	760	286.99025754546
10	1026007	780	583.17812018167
10	1071864	800	533.5156151592
10	1118414	820	433.71975894296
10	1165435	840	441.52275426487
10	1214186	860	650.4871331151
10	1263928	880	870.14579789374
10	1315358	900	797.81734370755
10	1367919	920	594.47898745648
10	1421961	940	589.3570965428
10	1476759	960	846.76371117075
10	1533092	980	841.97086015528
10	1590938	1000	650.63084158047
10	1649857	1020	646.71473058457
10	1710356	1040	729.58170313783
10	1772458	1060	782.49869417206
10	1836089	1080	732.33599649001
10	1901189	1100	801.04731550298
10	1968224	1120	684.63273302984
10	2037033	1140	732.9976752674
10	2107669	1160	599.55671016526
10	2180255	1180	652.94987483688
10	2254646	1200	545.11571927879
10	2330876	1220	543.96077474314
10	2408871	1240	895.51067652963
10	2489886	1260	834.55413719555
10	2572590	1280	843.86352350903
10	2656929	1300	750.7537674108
10	2743173	1320	493.35154476011
10	2831625	1340	643.73983118471
10	2922186	1360	749.11415356918
10	3014552	1380	895.16411621229
10	3108730	1400	914.43086055012
10	3206514	1420	560.73978950111
10	3306446	1440	967.01878512433
10	3407667	1460	700.9507818088
10	3510987	1480	914.45944740424
10	3616760	1500	651.25997049912
10	3724343	1520	856.75404996378
10	3834934	1540	957.23398004994
10	3948511	1560	696.1947027436
10	4063337	1580	763.28603209379
10	4180683	1600	605.47740128448
10	4301756	1620	804.6675767071
10	4424177	1640	967.79641730359
10	4548847	1660	854.89016540184
10	4675816	1680	925.26024861438
10	4805059	1700	930.08140269416
10	4936387	1720	841.84318780528
10	5070752	1740	651.42808831278
10	5207487	1760	1153.3416133607
10	5346370	1780	945.48991167251
10	5487847	1800	1100.1380955213
10	5631351	1820	863.52256657544
10	5777581	1840	601.15620357464
10	5927170	1860	803.14416520347
10	6079897	1880	908.8543745455
10	6234600	1900	999.34324237477
10	6391083	1920	1109.3213471756
10	6550388	1940	1344.7474153576
10	6712151	1960	1415.0692471042
10	6876535	1980	865.19768479841
10	7043268	2000	663.06569482604
11	145646	240	47.103504756087
11	171392	260	47.655482461775
11	198417	280	47.502613547926
11	225579	300	49.366210408546
11	252918	320	48.801087024615
11	280223	340	47.834105457896
11	307308	360	47.140473038363
11	334708	380	48.587258357223
11	362388	400	48.331160438805
11	390484	420	48.1152085828
11	419206	440	47.96772033027
11	448317	460	48.276804081296
11	478237	480	48.37218797149
11	508865	500	49.724272297915
11	539751	520	48.233630249716
11	571461	540	48.657912832156
11	603673	560	48.671602597075
11	636979	580	48.275877223487
11	671058	600	49.483326946179
11	705573	620	48.189638218798
11	741712	640	48.002312198502
11	778524	660	48.348059710917
11	816944	680	48.760026539182
11	856302	700	48.041763490021
11	896808	720	48.771292012191
11	938633	740	49.372068678591
11	981885	760	47.83170959091
11	1026007	780	48.598176681806
11	1071864	800	48.501419559927
11	1118414	820	48.191084326996
11	1165435	840	49.058083807208
11	1214186	860	50.037471778084
11	1263928	880	48.341433216319
11	1315358	900	49.863583981722
11	1367919	920	49.539915621373
11	1421961	940	49.113091378567
11	1476759	960	49.809630068868
11	1533092	980	49.527697656193
11	1590938	1000	50.048526275421
11	1649857	1020	49.747286968044
11	1710356	1040	48.638780209189
11	1772458	1060	48.906168385754
11	1836089	1080	48.822399766001
11	1901189	1100	50.065457218936
11	1968224	1120	48.90233807356
11	2037033	1140	48.866511684493
11	2107669	1160	49.963059180439
11	2180255	1180	50.226913448991
11	2254646	1200	49.55597447989
11	2330876	1220	49.450979522104
11	2408871	1240	49.750593140535
11	2489886	1260	49.091419835032
11	2572590	1280	49.639030794649
11	2656929	1300	50.05025116072
11	2743173	1320	49.335154476011
11	2831625	1340	49.51844855267
11	2922186	1360	49.940943571278
11	3014552	1380	49.731339789572
11	3108730	1400	50.801714475007
11	3206514	1420	50.976344500101
11	3306446	1440	50.89572553286
11	3407667	1460	50.067912986343
11	3510987	1480	50.803302633569
11	3616760	1500	50.096920807625
11	3724343	1520	50.397297056693
11	3834934	1540	50.380735792102
11	3948511	1560	49.728193053114
11	4063337	1580	50.885735472919
11	4180683	1600	50.45645010704
11	4301756	1620	50.291723544194
11	4424177	1640	50.936653542294
11	4548847	1660	50.287656788344
11	4675816	1680	51.403347145243
11	4805059	1700	51.671189038564
11	4936387	1720	49.520187517958
11	5070752	1740	50.109852947137
11	5207487	1760	50.14528753742
11	5346370	1780	49.762626930132
11	5487847	1800	50.00627706915
11	5631351	1820	50.795445092673
11	5777581	1840	50.096350297887
11	5927170	1860	50.196510325217
11	6079897	1880	50.491909696972
11	6234600	1900	49.967162118738
11	6391083	1920	50.423697598892
11	6550388	1940	49.805459828061
11	6712151	1960	50.53818739658
11	6876535	1980	50.89398145873
11	7043268	2000	51.005053448157
12	145646	240	1.6815678788615
12	171392	260	1.7215230463477
12	198417	280	1.8936568887426
12	225579	300	2.1494865325283
12	252918	320	2.3940686584391
12	280223	340	0.94886409966944
12	307308	360	2.4175788564022
12	334708	380	1.9608489428771
12	362388	400	1.5630086996221