version 2
run statisticRVV-174-20150327-12:13:16-17100
attr c 11
attr configname statisticRVV
attr datetime 20150327-12:13:16
attr experiment statisticRVV
attr inifile omnetpp.ini
attr iterationvars "$sc=\"erlangen-medium.launchd.xml\", $p=1/10, $c=11"
attr iterationvars2 "$sc=\"erlangen-medium.launchd.xml\", $p=1/10, $c=11, $repetition=4"
attr measurement "$sc=\"erlangen-medium.launchd.xml\", $p=1/10, $c=11"
attr network RSUExampleScenario
attr p 1/10
attr processid 17100
attr repetition 4
attr replication #4
attr resultdir results
attr runnumber 174
attr sc "\"erlangen-medium.launchd.xml\""
attr seedset 174

vector 0  RSUExampleScenario.rsu[0].appl  Number_CH  ETV
vector 1  RSUExampleScenario.rsu[0].appl  Number_ON  ETV
vector 2  RSUExampleScenario.rsu[0].appl  Number_FN  ETV
vector 3  RSUExampleScenario.rsu[0].appl  Number_CH_Losts  ETV
vector 4  RSUExampleScenario.rsu[0].appl  Number_CH_Losts  ETV
vector 5  RSUExampleScenario.rsu[0].appl  Mean_Cluster_Size  ETV
vector 6  RSUExampleScenario.rsu[0].appl  StdDev_Cluster_Size  ETV
vector 7  RSUExampleScenario.rsu[0].appl  Variance_Cluster_Size  ETV
vector 8  RSUExampleScenario.rsu[0].appl  Mean_Neighbors  ETV
vector 9  RSUExampleScenario.rsu[0].appl  StdDev_Neighbors  ETV
vector 10  RSUExampleScenario.rsu[0].appl  Variance_Neighbors  ETV
vector 11  RSUExampleScenario.rsu[0].appl  Total_CH_Utility  ETV
vector 12  RSUExampleScenario.rsu[0].appl  Mean_CH_Utility  ETV
vector 13  RSUExampleScenario.rsu[0].appl  StdDev_CH_Utility  ETV
vector 14  RSUExampleScenario.rsu[0].appl  Variance_CH_Utility  ETV
vector 15  RSUExampleScenario.rsu[0].appl  Total_exp_CH_Utility  ETV
vector 16  RSUExampleScenario.rsu[0].appl  Mean_exp_CH_Utility  ETV
vector 17  RSUExampleScenario.rsu[0].appl  StdDev_exp_CH_Utility  ETV
vector 18  RSUExampleScenario.rsu[0].appl  Variance_exp_CH_Utility  ETV
vector 19  RSUExampleScenario.rsu[0].appl  Total_ON_Utility  ETV
vector 20  RSUExampleScenario.rsu[0].appl  Mean_ON_Utility  ETV
vector 21  RSUExampleScenario.rsu[0].appl  StdDev_ON_Utility  ETV
vector 22  RSUExampleScenario.rsu[0].appl  Variance_ON_Utility  ETV
vector 23  RSUExampleScenario.rsu[0].appl  Total_exp_ON_Utility  ETV
vector 24  RSUExampleScenario.rsu[0].appl  Mean_exp_ON_Utility  ETV
vector 25  RSUExampleScenario.rsu[0].appl  StdDev_exp_ON_Utility  ETV
vector 26  RSUExampleScenario.rsu[0].appl  Variance_exp_ON_Utility  ETV
0	145208	240	7
0	171214	260	7
0	198390	280	8
0	225564	300	10
0	252825	320	7
0	280125	340	8
0	307721	360	12
0	335457	380	6
0	363733	400	5
0	392395	420	9
0	421368	440	16
0	451026	460	9
0	481319	480	12
0	512034	500	13
0	543394	520	10
0	575519	540	7
0	609017	560	12
0	642561	580	10
0	677689	600	9
0	713586	620	10
0	750005	640	9
0	787807	660	7
0	826814	680	7
0	866719	700	13
0	908132	720	4
0	951112	740	13
0	994610	760	16
0	1039788	780	12
0	1085564	800	7
0	1132640	820	16
0	1180815	840	9
0	1229704	860	18
0	1280569	880	13
0	1332381	900	9
0	1385455	920	14
0	1439728	940	11
0	1495147	960	5
0	1552520	980	13
0	1610699	1000	14
0	1670206	1020	15
0	1731566	1040	14
0	1794262	1060	14
0	1858097	1080	12
0	1924071	1100	13
0	1991736	1120	17
0	2060856	1140	19
0	2132114	1160	15
0	2204896	1180	15
0	2280253	1200	16
0	2357694	1220	13
0	2437211	1240	14
0	2517913	1260	13
0	2600757	1280	11
0	2686475	1300	17
0	2774509	1320	12
0	2864257	1340	25
0	2955833	1360	20
0	3049691	1380	10
0	3145208	1400	19
0	3242143	1420	21
0	3341264	1440	21
0	3443220	1460	18
0	3547698	1480	19
0	3654622	1500	12
0	3763329	1520	21
0	3874835	1540	18
0	3988759	1560	17
0	4105026	1580	14
0	4223538	1600	13
0	4344356	1620	21
0	4468018	1640	15
0	4593817	1660	12
0	4721845	1680	20
0	4852196	1700	18
0	4984963	1720	13
0	5119733	1740	17
0	5257204	1760	18
0	5396780	1780	15
0	5539034	1800	14
0	5684046	1820	22
0	5831525	1840	20
0	5982063	1860	17
0	6134132	1880	17
0	6289394	1900	19
0	6448030	1920	23
0	6608713	1940	22
0	6772190	1960	22
0	6937965	1980	11
0	7106905	2000	12
1	145208	240	48
1	171214	260	58
1	198390	280	67
1	225564	300	53
1	252825	320	53
1	280125	340	64
1	307721	360	70
1	335457	380	61
1	363733	400	54
1	392395	420	66
1	421368	440	79
1	451026	460	78
1	481319	480	83
1	512034	500	82
1	543394	520	64
1	575519	540	54
1	609017	560	79
1	642561	580	79
1	677689	600	74
1	713586	620	73
1	750005	640	63
1	787807	660	57
1	826814	680	54
1	866719	700	83
1	908132	720	35
1	951112	740	73
1	994610	760	90
1	1039788	780	88
1	1085564	800	61
1	1132640	820	96
1	1180815	840	77
1	1229704	860	88
1	1280569	880	100
1	1332381	900	75
1	1385455	920	104
1	1439728	940	89
1	1495147	960	42
1	1552520	980	95
1	1610699	1000	99
1	1670206	1020	89
1	1731566	1040	95
1	1794262	1060	100
1	1858097	1080	111
1	1924071	1100	108
1	1991736	1120	121
1	2060856	1140	113
1	2132114	1160	103
1	2204896	1180	115
1	2280253	1200	117
1	2357694	1220	107
1	2437211	1240	108
1	2517913	1260	90
1	2600757	1280	97
1	2686475	1300	114
1	2774509	1320	82
1	2864257	1340	126
1	2955833	1360	133
1	3049691	1380	98
1	3145208	1400	122
1	3242143	1420	124
1	3341264	1440	130
1	3443220	1460	137
1	3547698	1480	118
1	3654622	1500	114
1	3763329	1520	136
1	3874835	1540	142
1	3988759	1560	125
1	4105026	1580	125
1	4223538	1600	114
1	4344356	1620	132
1	4468018	1640	106
1	4593817	1660	99
1	4721845	1680	145
1	4852196	1700	140
1	4984963	1720	116
1	5119733	1740	123
1	5257204	1760	141
1	5396780	1780	124
1	5539034	1800	125
1	5684046	1820	154
1	5831525	1840	143
1	5982063	1860	153
1	6134132	1880	130
1	6289394	1900	117
1	6448030	1920	161
1	6608713	1940	152
1	6772190	1960	146
1	6937965	1980	104
1	7106905	2000	103
2	145208	240	24
2	171214	260	22
2	198390	280	17
2	225564	300	30
2	252825	320	34
2	280125	340	25
2	307721	360	14
2	335457	380	29
2	363733	400	36
2	392395	420	24
2	421368	440	4
2	451026	460	13
2	481319	480	6
2	512034	500	7
2	543394	520	28
2	575519	540	42
2	609017	560	16
2	642561	580	20
2	677689	600	26
2	713586	620	27
2	750005	640	38
2	787807	660	48
2	826814	680	53
2	866719	700	19
2	908132	720	78
2	951112	740	32
2	994610	760	12
2	1039788	780	19
2	1085564	800	52
2	1132640	820	12
2	1180815	840	38
2	1229704	860	18
2	1280569	880	12
2	1332381	900	42
2	1385455	920	10
2	1439728	940	29
2	1495147	960	85
2	1552520	980	22
2	1610699	1000	21
2	1670206	1020	30
2	1731566	1040	27
2	1794262	1060	23
2	1858097	1080	14
2	1924071	1100	19
2	1991736	1120	3
2	2060856	1140	10
2	2132114	1160	25
2	2204896	1180	14
2	2280253	1200	11
2	2357694	1220	27
2	2437211	1240	27
2	2517913	1260	46
2	2600757	1280	42
2	2686475	1300	20
2	2774509	1320	59
2	2864257	1340	4
2	2955833	1360	3
2	3049691	1380	50
2	3145208	1400	17
2	3242143	1420	13
2	3341264	1440	9
2	3443220	1460	6
2	3547698	1480	26
2	3654622	1500	36
2	3763329	1520	9
2	3874835	1540	7
2	3988759	1560	26
2	4105026	1580	31
2	4223538	1600	43
2	4344356	1620	19
2	4468018	1640	53
2	4593817	1660	64
2	4721845	1680	11
2	4852196	1700	20
2	4984963	1720	47
2	5119733	1740	40
2	5257204	1760	22
2	5396780	1780	42
2	5539034	1800	42
2	5684046	1820	9
2	5831525	1840	22
2	5982063	1860	17
2	6134132	1880	42
2	6289394	1900	53
2	6448030	1920	8
2	6608713	1940	18
2	6772190	1960	27
2	6937965	1980	80
2	7106905	2000	81
3	145208	240	0
3	171214	260	1
3	198390	280	1
3	225564	300	0
3	252825	320	0
3	280125	340	0
3	307721	360	1
3	335457	380	0
3	363733	400	0
3	392395	420	0
3	421368	440	0
3	451026	460	0
3	481319	480	1
3	512034	500	1
3	543394	520	0
3	575519	540	0
3	609017	560	1
3	642561	580	1
3	677689	600	0
3	713586	620	0
3	750005	640	1
3	787807	660	0
3	826814	680	3
3	866719	700	0
3	908132	720	1
3	951112	740	1
3	994610	760	0
3	1039788	780	0
3	1085564	800	0
3	1132640	820	1
3	1180815	840	0
3	1229704	860	1
3	1280569	880	0
3	1332381	900	0
3	1385455	920	1
3	1439728	940	1
3	1495147	960	0
3	1552520	980	0
3	1610699	1000	2
3	1670206	1020	0
3	1731566	1040	2
3	1794262	1060	0
3	1858097	1080	0
3	1924071	1100	0
3	1991736	1120	0
3	2060856	1140	0
3	2132114	1160	0
3	2204896	1180	1
3	2280253	1200	0
3	2357694	1220	0
3	2437211	1240	1
3	2517913	1260	0
3	2600757	1280	0
3	2686475	1300	0
3	2774509	1320	0
3	2864257	1340	1
3	2955833	1360	0
3	3049691	1380	1
3	3145208	1400	2
3	3242143	1420	0
3	3341264	1440	0
3	3443220	1460	0
3	3547698	1480	0
3	3654622	1500	0
3	3763329	1520	0
3	3874835	1540	0
3	3988759	1560	0
3	4105026	1580	0
3	4223538	1600	0
3	4344356	1620	1
3	4468018	1640	1
3	4593817	1660	1
3	4721845	1680	2
3	4852196	1700	1
3	4984963	1720	0
3	5119733	1740	0
3	5257204	1760	0
3	5396780	1780	0
3	5539034	1800	0
3	5684046	1820	0
3	5831525	1840	0
3	5982063	1860	0
3	6134132	1880	0
3	6289394	1900	2
3	6448030	1920	1
3	6608713	1940	0
3	6772190	1960	0
3	6937965	1980	1
3	7106905	2000	0
4	145208	240	24
4	171214	260	21
4	198390	280	16
4	225564	300	30
4	252825	320	34
4	280125	340	23
4	307721	360	13
4	335457	380	29
4	363733	400	36
4	392395	420	24
4	421368	440	4
4	451026	460	13
4	481319	480	5
4	512034	500	6
4	543394	520	28
4	575519	540	42
4	609017	560	15
4	642561	580	19
4	677689	600	26
4	713586	620	26
4	750005	640	37
4	787807	660	48
4	826814	680	50
4	866719	700	19
4	908132	720	77
4	951112	740	31
4	994610	760	12
4	1039788	780	19
4	1085564	800	52
4	1132640	820	11
4	1180815	840	38
4	1229704	860	17
4	1280569	880	12
4	1332381	900	42
4	1385455	920	8
4	1439728	940	28
4	1495147	960	85
4	1552520	980	22
4	1610699	1000	18
4	1670206	1020	29
4	1731566	1040	25
4	1794262	1060	23
4	1858097	1080	14
4	1924071	1100	19
4	1991736	1120	3
4	2060856	1140	9
4	2132114	1160	25
4	2204896	1180	13
4	2280253	1200	11
4	2357694	1220	27
4	2437211	1240	26
4	2517913	1260	45
4	2600757	1280	42
4	2686475	1300	20
4	2774509	1320	59
4	2864257	1340	3
4	2955833	1360	3
4	3049691	1380	49
4	3145208	1400	15
4	3242143	1420	13
4	3341264	1440	9
4	3443220	1460	6
4	3547698	1480	26
4	3654622	1500	36
4	3763329	1520	9
4	3874835	1540	7
4	3988759	1560	26
4	4105026	1580	31
4	4223538	1600	43
4	4344356	1620	17
4	4468018	1640	51
4	4593817	1660	63
4	4721845	1680	9
4	4852196	1700	19
4	4984963	1720	47
4	5119733	1740	40
4	5257204	1760	21
4	5396780	1780	42
4	5539034	1800	42
4	5684046	1820	9
4	5831525	1840	22
4	5982063	1860	17
4	6134132	1880	42
4	6289394	1900	51
4	6448030	1920	7
4	6608713	1940	18
4	6772190	1960	24
4	6937965	1980	79
4	7106905	2000	80
5	145208	240	6.8571428571429
5	171214	260	8.2857142857143
5	198390	280	8.375
5	225564	300	5.3
5	252825	320	7.5714285714286
5	280125	340	8
5	307721	360	5.8333333333333
5	335457	380	10.166666666667
5	363733	400	10.8
5	392395	420	7.3333333333333
5	421368	440	4.9375
5	451026	460	8.6666666666667
5	481319	480	6.9166666666667
5	512034	500	6.3076923076923
5	543394	520	6.4
5	575519	540	7.7142857142857
5	609017	560	6.5833333333333
5	642561	580	7.9
5	677689	600	8.2222222222222
5	713586	620	7.3
5	750005	640	7
5	787807	660	8.1428571428571
5	826814	680	7.7142857142857
5	866719	700	6.3846153846154
5	908132	720	8.75
5	951112	740	5.6153846153846
5	994610	760	5.625
5	1039788	780	7.3333333333333
5	1085564	800	8.7142857142857
5	1132640	820	6
5	1180815	840	8.5555555555556
5	1229704	860	4.8888888888889
5	1280569	880	7.6923076923077
5	1332381	900	8.3333333333333
5	1385455	920	7.4285714285714
5	1439728	940	8.0909090909091
5	1495147	960	8.4
5	1552520	980	7.3076923076923
5	1610699	1000	7.0714285714286
5	1670206	1020	5.9333333333333
5	1731566	1040	6.7857142857143
5	1794262	1060	7.1428571428571
5	1858097	1080	9.25
5	1924071	1100	8.3076923076923
5	1991736	1120	7.1176470588235
5	2060856	1140	5.9473684210526
5	2132114	1160	6.8666666666667
5	2204896	1180	7.6666666666667
5	2280253	1200	7.3125
5	2357694	1220	8.2307692307692
5	2437211	1240	7.7142857142857
5	2517913	1260	6.9230769230769
5	2600757	1280	8.8181818181818
5	2686475	1300	6.7058823529412
5	2774509	1320	6.8333333333333
5	2864257	1340	5.04
5	2955833	1360	6.65
5	3049691	1380	9.8
5	3145208	1400	6.4210526315789
5	3242143	1420	5.9047619047619
5	3341264	1440	6.1904761904762
5	3443220	1460	7.6111111111111
5	3547698	1480	6.2105263157895
5	3654622	1500	9.5
5	3763329	1520	6.4761904761905
5	3874835	1540	7.8888888888889
5	3988759	1560	7.3529411764706
5	4105026	1580	8.9285714285714
5	4223538	1600	8.7692307692308
5	4344356	1620	6.2857142857143
5	4468018	1640	7.0666666666667
5	4593817	1660	8.25
5	4721845	1680	7.25
5	4852196	1700	7.7777777777778
5	4984963	1720	8.9230769230769
5	5119733	1740	7.2352941176471
5	5257204	1760	7.8333333333333
5	5396780	1780	8.2666666666667
5	5539034	1800	8.9285714285714
5	5684046	1820	7
5	5831525	1840	7.15
5	5982063	1860	9
5	6134132	1880	7.6470588235294
5	6289394	1900	6.1578947368421
5	6448030	1920	7
5	6608713	1940	6.9090909090909
5	6772190	1960	6.6363636363636
5	6937965	1980	9.4545454545455
5	7106905	2000	8.5833333333333
6	145208	240	2.1157009420498
6	171214	260	3.3022358947782
6	198390	280	3.0676887530703
6	225564	300	2.750757471437
6	252825	320	3.3594217189442
6	280125	340	2.1380899352994
6	307721	360	2.6571800956288
6	335457	380	0.40824829046386
6	363733	400	0.44721359549996
6	392395	420	3.7080992435478
6	421368	440	3.1298296013255
6	451026	460	1.9364916731037
6	481319	480	3.6545944516541
6	512034	500	3.1985573671218
6	543394	520	3.8643671323172
6	575519	540	3.0394235042348
6	609017	560	3.6045005538111
6	642561	580	3.1073389830457
6	677689	600	2.538591035288
6	713586	620	2.3593784492249
6	750005	640	3.0822070014845
6	787807	660	3.1847852585154
6	826814	680	4.3479606604432
6	866719	700	3.5246385521181
6	908132	720	2.0615528128088
6	951112	740	3.4043712473442
6	994610	760	3.3241540277189
6	1039788	780	3.4728383291777
6	1085564	800	2.2886885410853
6	1132640	820	2.8982753492379
6	1180815	840	2.6977356760398
6	1229704	860	2.8052238851385
6	1280569	880	3.119418091691
6	1332381	900	2.5980762113533
6	1385455	920	2.7376094488633
6	1439728	940	2.1191765124475
6	1495147	960	3.2093613071762
6	1552520	980	3.172396974545
6	1610699	1000	3.8722739436287
6	1670206	1020	2.7894358535289
6	1731566	1040	3.6831961753257
6	1794262	1060	3.5050983275387
6	1858097	1080	1.5447859516333
6	1924071	1100	2.6578379491802
6	1991736	1120	2.7586761530936
6	2060856	1140	3.0454644639479
6	2132114	1160	3.3988793671416
6	2204896	1180	2.4397501823713
6	2280253	1200	3.4199171529926
6	2357694	1220	2.8033862307885
6	2437211	1240	2.3673604720016
6	2517913	1260	3.3030677271676
6	2600757	1280	2.7502066038093
6	2686475	1300	3.1576238273889
6	2774509	1320	2.2495790852082
6	2864257	1340	2.5079872407969
6	2955833	1360	2.9784312366712
6	3049691	1380	1.3984117975602
6	3145208	1400	3.3717089216941
6	3242143	1420	3.4191338362919
6	3341264	1440	2.8039088362329
6	3443220	1460	3.0705218734221
6	3547698	1480	3.3429685305864
6	3654622	1500	1.2431631210161
6	3763329	1520	3.1083604620289
6	3874835	1540	2.8261153735428
6	3988759	1560	3.3343135813573
6	4105026	1580	2.2689979392568
6	4223538	1600	2.0878156908536
6	4344356	1620	3.1802964821359
6	4468018	1640	3.6540909885197
6	4593817	1660	2.8324419275119
6	4721845	1680	2.6332889181242
6	4852196	1700	3.1910823455291
6	4984963	1720	1.6563785025138
6	5119733	1740	3.4192362408275
6	5257204	1760	2.0073394742061
6	5396780	1780	2.3744673588187
6	5539034	1800	2.3685206585314
6	5684046	1820	3.2219485379119
6	5831525	1840	3.3759988775254
6	5982063	1860	1.8371173070874
6	6134132	1880	2.6678918753997
6	6289394	1900	3.2534282413536
6	6448030	1920	3.3028912953791
6	6608713	1940	3.1609084123622
6	6772190	1960	3.3172773481168
6	6937965	1980	1.8090680674666
6	7106905	2000	3.1176428547377
7	145208	240	4.4761904761905
7	171214	260	10.904761904762
7	198390	280	9.4107142857143
7	225564	300	7.5666666666667
7	252825	320	11.285714285714
7	280125	340	4.5714285714286
7	307721	360	7.0606060606061
7	335457	380	0.16666666666667
7	363733	400	0.2
7	392395	420	13.75
7	421368	440	9.7958333333333
7	451026	460	3.75
7	481319	480	13.356060606061
7	512034	500	10.230769230769
7	543394	520	14.933333333333
7	575519	540	9.2380952380952
7	609017	560	12.992424242424
7	642561	580	9.6555555555556
7	677689	600	6.4444444444444
7	713586	620	5.5666666666667
7	750005	640	9.5
7	787807	660	10.142857142857
7	826814	680	18.904761904762
7	866719	700	12.423076923077
7	908132	720	4.25
7	951112	740	11.589743589744
7	994610	760	11.05
7	1039788	780	12.060606060606
7	1085564	800	5.2380952380952
7	1132640	820	8.4
7	1180815	840	7.2777777777778
7	1229704	860	7.8692810457516
7	1280569	880	9.7307692307692
7	1332381	900	6.75
7	1385455	920	7.4945054945055
7	1439728	940	4.4909090909091
7	1495147	960	10.3
7	1552520	980	10.064102564103
7	1610699	1000	14.994505494505
7	1670206	1020	7.7809523809524
7	1731566	1040	13.565934065934
7	1794262	1060	12.285714285714
7	1858097	1080	2.3863636363636
7	1924071	1100	7.0641025641026
7	1991736	1120	7.6102941176471
7	2060856	1140	9.2748538011696
7	2132114	1160	11.552380952381
7	2204896	1180	5.952380952381
7	2280253	1200	11.695833333333
7	2357694	1220	7.8589743589744
7	2437211	1240	5.6043956043956
7	2517913	1260	10.910256410256
7	2600757	1280	7.5636363636364
7	2686475	1300	9.9705882352941
7	2774509	1320	5.0606060606061
7	2864257	1340	6.29
7	2955833	1360	8.8710526315789
7	3049691	1380	1.9555555555556
7	3145208	1400	11.368421052632
7	3242143	1420	11.690476190476
7	3341264	1440	7.8619047619048
7	3443220	1460	9.4281045751634
7	3547698	1480	11.175438596491
7	3654622	1500	1.5454545454545
7	3763329	1520	9.6619047619048
7	3874835	1540	7.9869281045752
7	3988759	1560	11.117647058824
7	4105026	1580	5.1483516483516
7	4223538	1600	4.3589743589744
7	4344356	1620	10.114285714286
7	4468018	1640	13.352380952381
7	4593817	1660	8.0227272727273
7	4721845	1680	6.9342105263158
7	4852196	1700	10.183006535948
7	4984963	1720	2.7435897435897
7	5119733	1740	11.691176470588
7	5257204	1760	4.0294117647059
7	5396780	1780	5.6380952380952
7	5539034	1800	5.6098901098901
7	5684046	1820	10.380952380952
7	5831525	1840	11.397368421053
7	5982063	1860	3.375
7	6134132	1880	7.1176470588235
7	6289394	1900	10.584795321637
7	6448030	1920	10.909090909091
7	6608713	1940	9.991341991342
7	6772190	1960	11.004329004329
7	6937965	1980	3.2727272727273
7	7106905	2000	9.719696969697
8	145208	240	22.493670886076
8	171214	260	22.333333333333
8	198390	280	22.554347826087
8	225564	300	22.150537634409
8	252825	320	22.382978723404
8	280125	340	22.210526315789
8	307721	360	22.03125
8	335457	380	22.145833333333
8	363733	400	22.2
8	392395	420	21.979797979798
8	421368	440	21.777777777778
8	451026	460	22.31
8	481319	480	22.564356435644
8	512034	500	22.617647058824
8	543394	520	23.078431372549
8	575519	540	23.184466019417
8	609017	560	23.452830188679
8	642561	580	23.348623853211
8	677689	600	23.733944954128
8	713586	620	24.605504587156
8	750005	640	24.736363636364
8	787807	660	24.464285714286
8	826814	680	25.80701754386
8	866719	700	26.269565217391
8	908132	720	26.905982905983
8	951112	740	27.559322033898
8	994610	760	28.101694915254
8	1039788	780	28.058823529412
8	1085564	800	28.825
8	1132640	820	28.701612903226
8	1180815	840	29.274193548387
8	1229704	860	29.403225806452
8	1280569	880	29.64
8	1332381	900	30.103174603175
8	1385455	920	30.937007874016
8	1439728	940	31.15503875969
8	1495147	960	31.25
8	1552520	980	32.107692307692
8	1610699	1000	32.436090225564
8	1670206	1020	32.421052631579
8	1731566	1040	33.176470588235
8	1794262	1060	33.642335766423
8	1858097	1080	33.85401459854
8	1924071	1100	34.985714285714
8	1991736	1120	35.347517730496
8	2060856	1140	36.333333333333
8	2132114	1160	36.062937062937
8	2204896	1180	37.277777777778
8	2280253	1200	38.375
8	2357694	1220	38.768707482993
8	2437211	1240	39.51677852349
8	2517913	1260	40.27027027027
8	2600757	1280	40.646666666667
8	2686475	1300	41.443708609272
8	2774509	1320	42.718954248366
8	2864257	1340	42.632258064516
8	2955833	1360	43.416666666667
8	3049691	1380	43.962025316456
8	3145208	1400	44.784810126582
8	3242143	1420	45.424050632911
8	3341264	1440	45.6625
8	3443220	1460	46.447204968944
8	3547698	1480	47.104294478528
8	3654622	1500	48.771604938272
8	3763329	1520	48.861445783133
8	3874835	1540	49.185628742515
8	3988759	1560	50.041666666667
8	4105026	1580	50.211764705882
8	4223538	1600	50.835294117647
8	4344356	1620	51.976608187135
8	4468018	1640	52.670520231214
8	4593817	1660	52.4
8	4721845	1680	53.348571428571
8	4852196	1700	53.762711864407
8	4984963	1720	54.607954545455
8	5119733	1740	54.622222222222
8	5257204	1760	55.3
8	5396780	1780	55.762430939227
8	5539034	1800	56.331491712707
8	5684046	1820	56.843243243243
8	5831525	1840	57.459459459459
8	5982063	1860	58.026737967914
8	6134132	1880	58.645502645503
8	6289394	1900	59.343915343915
8	6448030	1920	59.71875
8	6608713	1940	60.317708333333
8	6772190	1960	61.625
8	6937965	1980	61.384615384615
8	7106905	2000	62.364102564103
9	145208	240	4.5541567873912
9	171214	260	5.1707285858501
9	198390	280	5.0586975051999
9	225564	300	4.8766217738511
9	252825	320	5.281549102704
9	280125	340	4.3999389184399
9	307721	360	5.3261087306331
9	335457	380	4.5002436581208
9	363733	400	4.919782039801
9	392395	420	4.6663795299949
9	421368	440	5.0417755933586
9	451026	460	4.3197806715741
9	481319	480	3.811602921565
9	512034	500	3.6425540969829
9	543394	520	3.2781493043454
9	575519	540	3.446360890641
9	609017	560	2.7915930781091
9	642561	580	3.7152741456821
9	677689	600	4.6100578485863
9	713586	620	3.2432789438852
9	750005	640	3.441989164399
9	787807	660	4.9336655076176
9	826814	680	5.420180568756
9	866719	700	5.3184909796421
9	908132	720	5.9711705459952
9	951112	740	6.7476395022758
9	994610	760	6.9888676197924
9	1039788	780	7.2839434719452
9	1085564	800	7.572243098727
9	1132640	820	8.1609618422341
9	1180815	840	8.2731210473843
9	1229704	860	8.4947801809453
9	1280569	880	9.0895189552973
9	1332381	900	9.683659940398
9	1385455	920	9.0586694698189
9	1439728	940	10.1577015212
9	1495147	960	10.725139903712
9	1552520	980	10.829364439715
9	1610699	1000	11.435162003767
9	1670206	1020	11.543862678941
9	1731566	1040	12.426305641478
9	1794262	1060	12.872529589536
9	1858097	1080	12.783571802481
9	1924071	1100	13.761580193211
9	1991736	1120	14.103690406416
9	2060856	1140	14.346063007304
9	2132114	1160	15.044168203883
9	2204896	1180	15.689043187718
9	2280253	1200	16.263939690792
9	2357694	1220	17.374232229892
9	2437211	1240	17.371382192609
9	2517913	1260	17.788475438605
9	2600757	1280	18.818503198709
9	2686475	1300	19.266425290849
9	2774509	1320	20.469957934656
9	2864257	1340	20.353696927936
9	2955833	1360	20.780250653067
9	3049691	1380	21.782037266159
9	3145208	1400	22.04695099221
9	3242143	1420	22.374432150585
9	3341264	1440	22.686512076313
9	3443220	1460	23.015728486493
9	3547698	1480	23.695760285707
9	3654622	1500	24.651678962477
9	3763329	1520	24.681463201679
9	3874835	1540	25.421417484507
9	3988759	1560	25.698238287824
9	4105026	1580	25.899255943093
9	4223538	1600	26.120724302336
9	4344356	1620	26.391164567928
9	4468018	1640	26.607637875851
9	4593817	1660	27.312369308454
9	4721845	1680	27.264955523008
9	4852196	1700	27.504135422356
9	4984963	1720	27.77192301214
9	5119733	1740	28.107367084443
9	5257204	1760	28.081863568013
9	5396780	1780	28.530566895718
9	5539034	1800	28.530890714884
9	5684046	1820	29.223878530762
9	5831525	1840	29.26880164452
9	5982063	1860	29.677375104031
9	6134132	1880	29.86737071437
9	6289394	1900	30.32401666528
9	6448030	1920	30.960438571579
9	6608713	1940	30.849034520491
9	6772190	1960	30.848303049716
9	6937965	1980	31.473778469795
9	7106905	2000	31.373633680189
10	145208	240	20.740344044142
10	171214	260	26.736434108527
10	198390	280	25.590420449116
10	225564	300	23.781439925199
10	252825	320	27.894760924274
10	280125	340	19.359462486002
10	307721	360	28.367434210526
10	335457	380	20.252192982456
10	363733	400	24.204255319149
10	392395	420	21.775097917955
10	421368	440	25.419501133787
10	451026	460	18.660505050505
10	481319	480	14.528316831683
10	512034	500	13.268200349447
10	543394	520	10.74626286158
10	575519	540	11.87740338854
10	609017	560	7.7929919137466
10	642561	580	13.803261977574
10	677689	600	21.252633367312
10	713586	620	10.518858307849
10	750005	640	11.84728940784
10	787807	660	24.341055341055
10	826814	680	29.37835739792
10	866719	700	28.286346300534
10	908132	720	35.65487768936
10	951112	740	45.530638852673
10	994610	760	48.844270606982
10	1039788	780	53.055832502493
10	1085564	800	57.338865546218
10	1132640	820	66.601298190401
10	1180815	840	68.444531864673
10	1229704	860	72.161290322581
10	1280569	880	82.61935483871
10	1332381	900	93.77326984127
10	1385455	920	82.05949256343
10	1439728	940	103.1789001938
10	1495147	960	115.0286259542
10	1552520	980	117.27513416816
10	1610699	1000	130.7629300524
10	1670206	1020	133.26076555024
10	1731566	1040	154.41307189542
10	1794262	1060	165.70201803349
10	1858097	1080	163.4197080292
10	1924071	1100	189.38108941418
10	1991736	1120	198.91408308004
10	2060856	1140	205.80952380952
10	2132114	1160	226.32699694672
10	2204896	1180	246.14607614608
10	2280253	1200	264.51573426573
10	2357694	1220	301.86394557823
10	2437211	1240	301.7649192817
10	2517913	1260	316.42985842986
10	2600757	1280	354.13606263982
10	2686475	1300	371.19514348786
10	2774509	1320	419.01917784658
10	2864257	1340	414.27297863427
10	2955833	1360	431.8188172043
10	3049691	1380	474.45714746432
10	3145208	1400	486.06804805289
10	3242143	1420	500.61521406111
10	3341264	1440	514.67783018868
10	3443220	1460	529.72375776398
10	3547698	1480	561.48905551769
10	3654622	1500	607.70527566904
10	3763329	1520	609.17462577583
10	3874835	1540	646.24846692158
10	3988759	1560	660.3994510978
10	4105026	1580	670.77145840585
10	4223538	1600	682.29223807866
10	4344356	1620	696.49356725146
10	4468018	1640	707.96639333244
10	4593817	1660	745.96551724138
10	4721845	1680	743.37779967159
10	4852196	1700	756.47746533128
10	4984963	1720	771.27970779221
10	5119733	1740	790.02408441962
10	5257204	1760	788.59106145251
10	5396780	1780	813.99324739104
10	5539034	1800	814.01172498465
10	5684046	1820	854.03507638073
10	5831525	1840	856.66274970623
10	5982063	1860	880.74659306538
10	6134132	1880	892.05983338962
10	6289394	1900	919.5459867162
10	6448030	1920	958.5487565445
10	6608713	1940	951.66293084642
10	6772190	1960	951.61780104712
10	6937965	1980	990.59873116574
10	7106905	2000	984.3048902987
11	145208	240	328.8422971216
11	171214	260	329.30821308118
11	198390	280	372.87472369932
11	225564	300	473.21876326067
11	252825	320	324.64696859313
11	280125	340	376.86483518123
11	307721	360	564.4044195519
11	335457	380	273.80859861526
11	363733	400	230.63703532864
11	392395	420	423.33547984706
11	421368	440	759.60400326304
11	451026	460	416.14796456441
11	481319	480	571.6945480238
11	512034	500	614.49013214916
11	543394	520	471.83419861751
11	575519	540	321.09756167636
11	609017	560	564.22976978674
11	642561	580	465.73459266549
11	677689	600	422.16518994277
11	713586	620	472.77093966646
11	750005	640	417.29431160237
11	787807	660	325.8480926714
11	826814	680	324.12897943852
11	866719	700	628.45403334379
11	908132	720	183.5010207269
11	951112	740	610.75674432845
11	994610	760	766.4909240227
11	1039788	780	564.89484184271
11	1085564	800	326.60823095789
11	1132640	820	759.80595118447
11	1180815	840	430.93639672006
11	1229704	860	864.80198069886
11	1280569	880	612.80108997519
11	1332381	900	417.88978842938
11	1385455	920	665.73066608268
11	1439728	940	522.04337767281
11	1495147	960	235.50774843851
11	1552520	980	622.13074164736
11	1610699	1000	672.43005183654
11	1670206	1020	710.64646253421
11	1731566	1040	685.17878108823
11	1794262	1060	681.06370643941
11	1858097	1080	576.22798998829
11	1924071	1100	617.33715316885
11	1991736	1120	812.85269247909
11	2060856	1140	904.00939750038
11	2132114	1160	725.11932110131
11	2204896	1180	711.45953708852
11	2280253	1200	773.44140325749
11	2357694	1220	628.68036736381
11	2437211	1240	660.97462930625
11	2517913	1260	622.44511825739
11	2600757	1280	516.18244393443
11	2686475	1300	824.77816196447
11	2774509	1320	563.40974609282
11	2864257	1340	1239.7664129513
11	2955833	1360	967.70380188905
11	3049691	1380	478.65364552848
11	3145208	1400	916.18709989484
11	3242143	1420	1012.2473725832
11	3341264	1440	1014.949312567
11	3443220	1460	859.93611833183
11	3547698	1480	911.85236297378
11	3654622	1500	574.06092718594
11	3763329	1520	1023.1085845936
11	3874835	1540	867.48837052081
11	3988759	1560	809.15965547867
11	4105026	1580	667.350677479
11	4223538	1600	628.93173513449
11	4344356	1620	1016.3787711288
11	4468018	1640	720.97299358863
11	4593817	1660	575.23780592506
11	4721845	1680	967.30840911043
11	4852196	1700	868.26006635991
11	4984963	1720	634.0483758024
11	5119733	1740	820.240071601
11	5257204	1760	873.99426281411
11	5396780	1780	721.29988672584
11	5539034	1800	672.31404397823
11	5684046	1820	1069.4125606333
11	5831525	1840	965.39007415005
11	5982063	1860	818.95057201032
11	6134132	1880	830.62462233935
11	6289394	1900	943.41889114981
11	6448030	1920	1100.426921556
11	6608713	1940	1039.1138044866
11	6772190	1960	1051.0605421857
11	6937965	1980	532.8182643688
11	7106905	2000	566.72025730464
12	145208	240	46.977471017372
12	171214	260	47.044030440168
12	198390	280	46.609340462416
12	225564	300	47.321876326067
12	252825	320	46.378138370447
12	280125	340	47.108104397654
12	307721	360	47.033701629325
12	335457	380	45.634766435877
12	363733	400	46.127407065728
12	392395	420	47.037275538562
12	421368	440	47.47525020394
12	451026	460	46.238662729379
12	481319	480	47.641212335316
12	512034	500	47.268471703782
12	543394	520	47.183419861751
12	575519	540	45.87108023948
12	609017	560	47.019147482228
12	642561	580	46.573459266549
12	677689	600	46.907243326975
12	713586	620	47.277093966646
12	750005	640	46.366034622486
12	787807	660	46.549727524486
12	826814	680	46.304139919789
12	866719	700	48.342617949522
12	908132	720	45.875255181726
12	951112	740	46.981288025266
12	994610	760	47.905682751419
12	1039788	780	47.074570153559
12	1085564	800	46.65831870827
12	1132640	820	47.48787194903
12	1180815	840	47.881821857784
12	1229704	860	48.04455448327
12	1280569	880	47.138545382707
12	1332381	900	46.432198714376
12	1385455	920	47.552190434477
12	1439728	940	47.458488879347
12	1495147	960	47.101549687702
12	1552520	980	47.856210895951
12	1610699	1000	48.030717988324
12	1670206	1020	47.376430835614
12	1731566	1040	48.941341506302
12	1794262	1060	48.647407602815
12	1858097	1080	48.018999165691
12	1924071	1100	47.487473320681
12	1991736	1120	47.814864263476
12	2060856	1140	47.579441973704
12	2132114	1160	48.341288073421
12	2204896	1180	47.430635805902
12	2280253	1200	48.340087703593
12	2357694	1220	48.360028258755