file 72320 1427440842                                           
version 2
run statisticRVV-139-20150327-07:13:33-4832
attr c 15
attr configname statisticRVV
attr datetime 20150327-07:13:33
attr experiment statisticRVV
attr inifile omnetpp.ini
attr iterationvars "$sc=\"erlangen-medium.launchd.xml\", $p=1/15, $c=15"
attr iterationvars2 "$sc=\"erlangen-medium.launchd.xml\", $p=1/15, $c=15, $repetition=9"
attr measurement "$sc=\"erlangen-medium.launchd.xml\", $p=1/15, $c=15"
attr network RSUExampleScenario
attr p 1/15
attr processid 4832
attr repetition 9
attr replication #9
attr resultdir results
attr runnumber 139
attr sc "\"erlangen-medium.launchd.xml\""
attr seedset 139

vector 0  RSUExampleScenario.rsu[0].appl  Number_CH  ETV
vector 1  RSUExampleScenario.rsu[0].appl  Number_ON  ETV
vector 2  RSUExampleScenario.rsu[0].appl  Number_FN  ETV
vector 3  RSUExampleScenario.rsu[0].appl  Number_CH_Losts  ETV
vector 4  RSUExampleScenario.rsu[0].appl  Number_CH_Losts  ETV
vector 5  RSUExampleScenario.rsu[0].appl  Mean_Cluster_Size  ETV
vector 6  RSUExampleScenario.rsu[0].appl  StdDev_Cluster_Size  ETV
vector 7  RSUExampleScenario.rsu[0].appl  Variance_Cluster_Size  ETV
vector 8  RSUExampleScenario.rsu[0].appl  Mean_Neighbors  ETV
vector 9  RSUExampleScenario.rsu[0].appl  StdDev_Neighbors  ETV
vector 10  RSUExampleScenario.rsu[0].appl  Variance_Neighbors  ETV
vector 11  RSUExampleScenario.rsu[0].appl  Total_CH_Utility  ETV
vector 12  RSUExampleScenario.rsu[0].appl  Mean_CH_Utility  ETV
vector 13  RSUExampleScenario.rsu[0].appl  StdDev_CH_Utility  ETV
vector 14  RSUExampleScenario.rsu[0].appl  Variance_CH_Utility  ETV
vector 15  RSUExampleScenario.rsu[0].appl  Total_exp_CH_Utility  ETV
vector 16  RSUExampleScenario.rsu[0].appl  Mean_exp_CH_Utility  ETV
vector 17  RSUExampleScenario.rsu[0].appl  StdDev_exp_CH_Utility  ETV
vector 18  RSUExampleScenario.rsu[0].appl  Variance_exp_CH_Utility  ETV
vector 19  RSUExampleScenario.rsu[0].appl  Total_ON_Utility  ETV
vector 20  RSUExampleScenario.rsu[0].appl  Mean_ON_Utility  ETV
vector 21  RSUExampleScenario.rsu[0].appl  StdDev_ON_Utility  ETV
vector 22  RSUExampleScenario.rsu[0].appl  Variance_ON_Utility  ETV
vector 23  RSUExampleScenario.rsu[0].appl  Total_exp_ON_Utility  ETV
vector 24  RSUExampleScenario.rsu[0].appl  Mean_exp_ON_Utility  ETV
vector 25  RSUExampleScenario.rsu[0].appl  StdDev_exp_ON_Utility  ETV
vector 26  RSUExampleScenario.rsu[0].appl  Variance_exp_ON_Utility  ETV
0	2438 1580 144693 7034665 240 2000 89 2 17 809 8293
1	4018 1666 144693 7034665 240 2000 89 28 164 8422 879584
2	5684 1618 144693 7034665 240 2000 89 2 72 3247 152915
3	7302 1537 144693 7034665 240 2000 89 0 2 11 13
4	8839 1618 144693 7034665 240 2000 89 2 72 3226 151400
5	10457 2293 144693 7034665 240 2000 89 5.2 15 962.16553544495 10816.745264324
6	12750 2747 144693 7034665 240 2000 89 0 5.6124860801609 304.4608289957 1193.6444513003
7	15497 2549 144693 7034665 240 2000 89 0 31.5 1193.6444513003 21344.209039925
8	18046 2686 144693 7034665 240 2000 89 21.836734693878 62.274611398964 3367.7383731036 142426.91609795
9	20732 2773 144693 7034665 240 2000 89 2.9190858622285 31.083594078094 1380.390910535 29854.783765211
10	23505 2839 144693 7034665 240 2000 89 8.5210622710623 966.18982081174 29854.783765211 19574122.878606
11	26344 2860 144693 7034665 240 2000 89 90.291720256336 820.76678294219 38345.361792595 18718921.597055
12	29204 2861 144693 7034665 240 2000 89 45.145860128168 48.804699616065 4206.3502585407 198855.08820951
13	32065 2865 144693 7034665 240 2000 89 0.32114174714751 4.7077050040911 159.22520158608 316.02330055855
14	34930 2867 144693 7034665 240 2000 89 0.10313202176095 22.162486405544 316.02330055855 1775.6780424938
15	37797 2869 144693 7034665 240 2000 89 134.15807188109 822.65868377981 37332.363483967 17655470.979489
16	40666 2865 144693 7034665 240 2000 89 44.719357293697 46.712126969742 4050.9882432549 184405.01381776
17	43531 2899 144693 7034665 240 2000 89 0.1356851779569 1.8586848339018 88.77374933009 100.07447569022
18	46430 2906 144693 7034665 240 2000 89 0.018410467517196 3.4547093117766 100.07447569022 163.39235354486
19	49336 2858 144693 7034665 240 2000 89 1264.0840835887 7897.3604159198 398192.40753328 1976324551.7713
20	52194 2863 144693 7034665 240 2000 89 45.145860128168 48.699014354142 4194.6360762515 197745.34169649
21	55057 2863 144693 7034665 240 2000 89 1.2520574907129 3.651112810579 228.71334194717 600.11600354679
22	57920 2858 144693 7034665 240 2000 89 1.5676479600502 13.330624755574 600.11600354679 4369.3067606109
23	60778 2870 144693 7034665 240 2000 89 3228.0315089847 8339.2512617432 530530.09126117 3334117027.5401
24	63648 2860 144693 7034665 240 2000 89 44.811245247025 45.735195893289 4050.8612822466 184380.19424909
25	66508 2905 144693 7034665 240 2000 89 0.52740554308677 1.4475524795835 91.513327014039 97.212585946284
26	69413 2907 144693 7034665 240 2000 89 0.27815660687865 2.0954081811482 97.212585946284 119.01136764955
