version 2
run statisticRVV-16-20150327-01:39:23-12540
attr c 15
attr configname statisticRVV
attr datetime 20150327-01:39:23
attr experiment statisticRVV
attr inifile omnetpp.ini
attr iterationvars "$sc=\"erlangen-low.launchd.xml\", $p=1/15, $c=15"
attr iterationvars2 "$sc=\"erlangen-low.launchd.xml\", $p=1/15, $c=15, $repetition=6"
attr measurement "$sc=\"erlangen-low.launchd.xml\", $p=1/15, $c=15"
attr network RSUExampleScenario
attr p 1/15
attr processid 12540
attr repetition 6
attr replication #6
attr resultdir results
attr runnumber 16
attr sc "\"erlangen-low.launchd.xml\""
attr seedset 16

vector 0  RSUExampleScenario.rsu[0].appl  Number_CH  ETV
vector 1  RSUExampleScenario.rsu[0].appl  Number_ON  ETV
vector 2  RSUExampleScenario.rsu[0].appl  Number_FN  ETV
vector 3  RSUExampleScenario.rsu[0].appl  Number_CH_Losts  ETV
vector 4  RSUExampleScenario.rsu[0].appl  Number_CH_Losts  ETV
vector 5  RSUExampleScenario.rsu[0].appl  Mean_Cluster_Size  ETV
vector 6  RSUExampleScenario.rsu[0].appl  StdDev_Cluster_Size  ETV
vector 7  RSUExampleScenario.rsu[0].appl  Variance_Cluster_Size  ETV
vector 8  RSUExampleScenario.rsu[0].appl  Mean_Neighbors  ETV
vector 9  RSUExampleScenario.rsu[0].appl  StdDev_Neighbors  ETV
vector 10  RSUExampleScenario.rsu[0].appl  Variance_Neighbors  ETV
vector 11  RSUExampleScenario.rsu[0].appl  Total_CH_Utility  ETV
vector 12  RSUExampleScenario.rsu[0].appl  Mean_CH_Utility  ETV
vector 13  RSUExampleScenario.rsu[0].appl  StdDev_CH_Utility  ETV
vector 14  RSUExampleScenario.rsu[0].appl  Variance_CH_Utility  ETV
vector 15  RSUExampleScenario.rsu[0].appl  Total_exp_CH_Utility  ETV
vector 16  RSUExampleScenario.rsu[0].appl  Mean_exp_CH_Utility  ETV
vector 17  RSUExampleScenario.rsu[0].appl  StdDev_exp_CH_Utility  ETV
vector 18  RSUExampleScenario.rsu[0].appl  Variance_exp_CH_Utility  ETV
vector 19  RSUExampleScenario.rsu[0].appl  Total_ON_Utility  ETV
vector 20  RSUExampleScenario.rsu[0].appl  Mean_ON_Utility  ETV
vector 21  RSUExampleScenario.rsu[0].appl  StdDev_ON_Utility  ETV
vector 22  RSUExampleScenario.rsu[0].appl  Variance_ON_Utility  ETV
vector 23  RSUExampleScenario.rsu[0].appl  Total_exp_ON_Utility  ETV
vector 24  RSUExampleScenario.rsu[0].appl  Mean_exp_ON_Utility  ETV
vector 25  RSUExampleScenario.rsu[0].appl  StdDev_exp_ON_Utility  ETV
vector 26  RSUExampleScenario.rsu[0].appl  Variance_exp_ON_Utility  ETV
0	34610	240	3
0	39848	260	1
0	45067	280	1
0	50383	300	1
0	55698	320	4
0	61078	340	3
0	66450	360	5
0	71874	380	0
0	77225	400	1
0	82597	420	3
0	87954	440	2
0	93291	460	3
0	98636	480	2
0	103925	500	2
0	109213	520	1
0	114512	540	3
0	119830	560	3
0	125197	580	3
0	130459	600	2
0	135798	620	5
0	141013	640	4
0	146351	660	4
0	151590	680	4
0	156832	700	1
0	162080	720	3
0	167319	740	3
0	172593	760	2
0	178005	780	2
0	183334	800	4
0	188639	820	4
0	193879	840	5
0	199198	860	3
0	204594	880	2
0	210016	900	5
0	215345	920	4
0	220643	940	1
0	225959	960	4
0	231247	980	3
0	236534	1000	3
0	241916	1020	1
0	247247	1040	1
0	252458	1060	2
0	257687	1080	2
0	262939	1100	4
0	268181	1120	2
0	273489	1140	2
0	278767	1160	2
0	284100	1180	2
0	289435	1200	4
0	294722	1220	5
0	299986	1240	4
0	305305	1260	1
0	310684	1280	3
0	315924	1300	2
0	321318	1320	1
0	326711	1340	4
0	332117	1360	3
0	337468	1380	1
0	342881	1400	2
0	348213	1420	4
0	353641	1440	2
0	358921	1460	3
0	364307	1480	0
0	369563	1500	2
0	374792	1520	3
0	380095	1540	2
0	385307	1560	1
0	390586	1580	1
0	395963	1600	0
0	401257	1620	2
0	406643	1640	2
0	411967	1660	3
0	417233	1680	5
0	422511	1700	1
0	427850	1720	3
0	433196	1740	1
0	438630	1760	5
0	444025	1780	2
0	449361	1800	1
0	454252	1820	2
0	458443	1840	3
0	462183	1860	3
0	465553	1880	4
0	468501	1900	0
0	471059	1920	1
0	473029	1940	3
0	474674	1960	1
0	475727	1980	1
0	476252	2000	1
1	34610	240	14
1	39848	260	2
1	45067	280	8
1	50383	300	7
1	55698	320	9
1	61078	340	10
1	66450	360	20
1	71874	380	0
1	77225	400	3
1	82597	420	15
1	87954	440	6
1	93291	460	13
1	98636	480	4
1	103925	500	3
1	109213	520	2
1	114512	540	7
1	119830	560	14
1	125197	580	11
1	130459	600	6
1	135798	620	18
1	141013	640	12
1	146351	660	13
1	151590	680	11
1	156832	700	3
1	162080	720	6
1	167319	740	10
1	172593	760	8
1	178005	780	4
1	183334	800	16
1	188639	820	15
1	193879	840	16
1	199198	860	14
1	204594	880	4
1	210016	900	16
1	215345	920	11
1	220643	940	2
1	225959	960	12
1	231247	980	8
1	236534	1000	13
1	241916	1020	3
1	247247	1040	2
1	252458	1060	10
1	257687	1080	6
1	262939	1100	19
1	268181	1120	8
1	273489	1140	4
1	278767	1160	7
1	284100	1180	8
1	289435	1200	18
1	294722	1220	14
1	299986	1240	12
1	305305	1260	5
1	310684	1280	12
1	315924	1300	4
1	321318	1320	2
1	326711	1340	12
1	332117	1360	13
1	337468	1380	1
1	342881	1400	6
1	348213	1420	12
1	353641	1440	4
1	358921	1460	14
1	364307	1480	0
1	369563	1500	13
1	374792	1520	10
1	380095	1540	4
1	385307	1560	2
1	390586	1580	6
1	395963	1600	0
1	401257	1620	10
1	406643	1640	4
1	411967	1660	8
1	417233	1680	14
1	422511	1700	7
1	427850	1720	12
1	433196	1740	4
1	438630	1760	16
1	444025	1780	9
1	449361	1800	2
1	454252	1820	8
1	458443	1840	7
1	462183	1860	11
1	465553	1880	9
1	468501	1900	0
1	471059	1920	2
1	473029	1940	3
1	474674	1960	3
1	475727	1980	3
1	476252	2000	1
2	34610	240	23
2	39848	260	37
2	45067	280	32
2	50383	300	33
2	55698	320	28
2	61078	340	29
2	66450	360	16
2	71874	380	40
2	77225	400	36
2	82597	420	23
2	87954	440	33
2	93291	460	26
2	98636	480	35
2	103925	500	35
2	109213	520	37
2	114512	540	30
2	119830	560	22
2	125197	580	26
2	130459	600	33
2	135798	620	18
2	141013	640	25
2	146351	660	24
2	151590	680	25
2	156832	700	37
2	162080	720	31
2	167319	740	26
2	172593	760	29
2	178005	780	35
2	183334	800	20
2	188639	820	21
2	193879	840	20
2	199198	860	22
2	204594	880	35
2	210016	900	20
2	215345	920	25
2	220643	940	37
2	225959	960	24
2	231247	980	29
2	236534	1000	25
2	241916	1020	37
2	247247	1040	38
2	252458	1060	29
2	257687	1080	33
2	262939	1100	17
2	268181	1120	30
2	273489	1140	34
2	278767	1160	31
2	284100	1180	30
2	289435	1200	18
2	294722	1220	21
2	299986	1240	24
2	305305	1260	35
2	310684	1280	26
2	315924	1300	33
2	321318	1320	37
2	326711	1340	23
2	332117	1360	24
2	337468	1380	38
2	342881	1400	33
2	348213	1420	25
2	353641	1440	35
2	358921	1460	22
2	364307	1480	41
2	369563	1500	24
2	374792	1520	27
2	380095	1540	34
2	385307	1560	37
2	390586	1580	33
2	395963	1600	42
2	401257	1620	29
2	406643	1640	36
2	411967	1660	29
2	417233	1680	22
2	422511	1700	32
2	427850	1720	25
2	433196	1740	35
2	438630	1760	20
2	444025	1780	29
2	449361	1800	36
2	454252	1820	28
2	458443	1840	24
2	462183	1860	17
2	465553	1880	14
2	468501	1900	23
2	471059	1920	18
2	473029	1940	11
2	474674	1960	10
2	475727	1980	7
2	476252	2000	5
3	34610	240	1
3	39848	260	0
3	45067	280	0
3	50383	300	0
3	55698	320	0
3	61078	340	0
3	66450	360	0
3	71874	380	0
3	77225	400	0
3	82597	420	0
3	87954	440	1
3	93291	460	0
3	98636	480	0
3	103925	500	0
3	109213	520	1
3	114512	540	0
3	119830	560	0
3	125197	580	0
3	130459	600	0
3	135798	620	0
3	141013	640	1
3	146351	660	0
3	151590	680	0
3	156832	700	0
3	162080	720	0
3	167319	740	0
3	172593	760	0
3	178005	780	0
3	183334	800	0
3	188639	820	0
3	193879	840	0
3	199198	860	0
3	204594	880	0
3	210016	900	0
3	215345	920	1
3	220643	940	0
3	225959	960	0
3	231247	980	0
3	236534	1000	0
3	241916	1020	0
3	247247	1040	1
3	252458	1060	0
3	257687	1080	0
3	262939	1100	0
3	268181	1120	0
3	273489	1140	0
3	278767	1160	1
3	284100	1180	0
3	289435	1200	0
3	294722	1220	0
3	299986	1240	0
3	305305	1260	0
3	310684	1280	0
3	315924	1300	0
3	321318	1320	0
3	326711	1340	0
3	332117	1360	1
3	337468	1380	0
3	342881	1400	0
3	348213	1420	1
3	353641	1440	0
3	358921	1460	0
3	364307	1480	0
3	369563	1500	0
3	374792	1520	1
3	380095	1540	0
3	385307	1560	0
3	390586	1580	0
3	395963	1600	0
3	401257	1620	0
3	406643	1640	0
3	411967	1660	0
3	417233	1680	0
3	422511	1700	0
3	427850	1720	0
3	433196	1740	0
3	438630	1760	0
3	444025	1780	0
3	449361	1800	0
3	454252	1820	0
3	458443	1840	0
3	462183	1860	0
3	465553	1880	0
3	468501	1900	0
3	471059	1920	0
3	473029	1940	0
3	474674	1960	0
3	475727	1980	0
3	476252	2000	0
4	34610	240	22
4	39848	260	37
4	45067	280	32
4	50383	300	33
4	55698	320	27
4	61078	340	29
4	66450	360	16
4	71874	380	40
4	77225	400	36
4	82597	420	22
4	87954	440	32
4	93291	460	26
4	98636	480	35
4	103925	500	35
4	109213	520	36
4	114512	540	30
4	119830	560	22
4	125197	580	26
4	130459	600	33
4	135798	620	18
4	141013	640	24
4	146351	660	24
4	151590	680	24
4	156832	700	37
4	162080	720	31
4	167319	740	26
4	172593	760	29
4	178005	780	35
4	183334	800	20
4	188639	820	21
4	193879	840	20
4	199198	860	22
4	204594	880	35
4	210016	900	20
4	215345	920	23
4	220643	940	37
4	225959	960	23
4	231247	980	29
4	236534	1000	25
4	241916	1020	37
4	247247	1040	37
4	252458	1060	29
4	257687	1080	33
4	262939	1100	16
4	268181	1120	30
4	273489	1140	34
4	278767	1160	30
4	284100	1180	30
4	289435	1200	18
4	294722	1220	21
4	299986	1240	23
4	305305	1260	34
4	310684	1280	26
4	315924	1300	33
4	321318	1320	37
4	326711	1340	23
4	332117	1360	22
4	337468	1380	38
4	342881	1400	33
4	348213	1420	24
4	353641	1440	35
4	358921	1460	22
4	364307	1480	41
4	369563	1500	24
4	374792	1520	26
4	380095	1540	34
4	385307	1560	37
4	390586	1580	33
4	395963	1600	41
4	401257	1620	29
4	406643	1640	35
4	411967	1660	28
4	417233	1680	22
4	422511	1700	31
4	427850	1720	25
4	433196	1740	35
4	438630	1760	20
4	444025	1780	29
4	449361	1800	36
4	454252	1820	28
4	458443	1840	24
4	462183	1860	17
4	465553	1880	14
4	468501	1900	23
4	471059	1920	18
4	473029	1940	11
4	474674	1960	10
4	475727	1980	7
4	476252	2000	5
5	34610	240	4.6666666666667
5	39848	260	2
5	45067	280	8
5	50383	300	7
5	55698	320	2.25
5	61078	340	3.3333333333333
5	66450	360	4
5	71874	380	nan
5	77225	400	3
5	82597	420	5
5	87954	440	3
5	93291	460	4.3333333333333
5	98636	480	2
5	103925	500	1.5
5	109213	520	2
5	114512	540	2.3333333333333
5	119830	560	4.6666666666667
5	125197	580	3.6666666666667
5	130459	600	3
5	135798	620	3.6
5	141013	640	3
5	146351	660	3.25
5	151590	680	2.75
5	156832	700	3
5	162080	720	2
5	167319	740	3.3333333333333
5	172593	760	4
5	178005	780	2
5	183334	800	4
5	188639	820	3.75
5	193879	840	3.2
5	199198	860	4.6666666666667
5	204594	880	2
5	210016	900	3.2
5	215345	920	2.75
5	220643	940	2
5	225959	960	3
5	231247	980	2.6666666666667
5	236534	1000	4.3333333333333
5	241916	1020	3
5	247247	1040	2
5	252458	1060	5
5	257687	1080	3
5	262939	1100	4.75
5	268181	1120	4
5	273489	1140	2
5	278767	1160	3.5
5	284100	1180	4
5	289435	1200	4.5
5	294722	1220	2.8
5	299986	1240	3
5	305305	1260	5
5	310684	1280	4
5	315924	1300	2
5	321318	1320	2
5	326711	1340	3
5	332117	1360	4.3333333333333
5	337468	1380	1
5	342881	1400	3
5	348213	1420	3
5	353641	1440	2
5	358921	1460	4.6666666666667
5	364307	1480	nan
5	369563	1500	6.5
5	374792	1520	3.3333333333333
5	380095	1540	2
5	385307	1560	2
5	390586	1580	6
5	395963	1600	nan
5	401257	1620	5
5	406643	1640	2
5	411967	1660	2.6666666666667
5	417233	1680	2.8
5	422511	1700	7
5	427850	1720	4
5	433196	1740	4
5	438630	1760	3.2
5	444025	1780	4.5
5	449361	1800	2
5	454252	1820	4
5	458443	1840	2.3333333333333
5	462183	1860	3.6666666666667
5	465553	1880	2.25
5	468501	1900	nan
5	471059	1920	2
5	473029	1940	1
5	474674	1960	3
5	475727	1980	3
5	476252	2000	1
6	34610	240	2.5166114784236
6	39848	260	nan
6	45067	280	nan
6	50383	300	nan
6	55698	320	0.5
6	61078	340	2.3094010767585
6	66450	360	1.5811388300842
6	71874	380	nan
6	77225	400	nan
6	82597	420	2.6457513110646
6	87954	440	0
6	93291	460	3.2145502536643
6	98636	480	1.4142135623731
6	103925	500	0.70710678118655
6	109213	520	nan
6	114512	540	1.1547005383793
6	119830	560	0.57735026918963
6	125197	580	1.1547005383793
6	130459	600	1.4142135623731
6	135798	620	1.1401754250991
6	141013	640	0.81649658092773
6	146351	660	0.95742710775634
6	151590	680	1.7078251276599
6	156832	700	nan
6	162080	720	1
6	167319	740	2.5166114784236
6	172593	760	2.8284271247462
6	178005	780	1.4142135623731
6	183334	800	3.4641016151378
6	188639	820	1.7078251276599
6	193879	840	1.7888543819998
6	199198	860	0.57735026918963
6	204594	880	0
6	210016	900	1.3038404810405
6	215345	920	0.95742710775634
6	220643	940	nan
6	225959	960	1.8257418583506
6	231247	980	1.1547005383793
6	236534	1000	2.0816659994661
6	241916	1020	nan
6	247247	1040	nan
6	252458	1060	1.4142135623731
6	257687	1080	1.4142135623731
6	262939	1100	3.7749172176354
6	268181	1120	1.4142135623731
6	273489	1140	1.4142135623731
6	278767	1160	3.5355339059327
6	284100	1180	1.4142135623731
6	289435	1200	1.7320508075689
6	294722	1220	1.3038404810405
6	299986	1240	0.81649658092773
6	305305	1260	nan
6	310684	1280	1.7320508075689
6	315924	1300	0
6	321318	1320	nan
6	326711	1340	2.4494897427832
6	332117	1360	1.5275252316519
6	337468	1380	nan
6	342881	1400	1.4142135623731
6	348213	1420	0.81649658092773
6	353641	1440	0
6	358921	1460	2.0816659994661
6	364307	1480	nan
6	369563	1500	0.70710678118655
6	374792	1520	0.57735026918963
6	380095	1540	0
6	385307	1560	nan
6	390586	1580	nan
6	395963	1600	nan
6	401257	1620	1.4142135623731
6	406643	1640	0
6	411967	1660	1.1547005383793
6	417233	1680	1.7888543819998
6	422511	1700	nan
6	427850	1720	2.6457513110646
6	433196	1740	nan
6	438630	1760	2.1679483388679
6	444025	1780	3.5355339059327
6	449361	1800	nan
6	454252	1820	2.8284271247462
6	458443	1840	1.1547005383793
6	462183	1860	0.57735026918963
6	465553	1880	0.5
6	468501	1900	nan
6	471059	1920	nan
6	473029	1940	0
6	474674	1960	nan
6	475727	1980	nan
6	476252	2000	nan
7	34610	240	6.3333333333333
7	39848	260	nan
7	45067	280	nan
7	50383	300	nan
7	55698	320	0.25
7	61078	340	5.3333333333333
7	66450	360	2.5
7	71874	380	nan
7	77225	400	nan
7	82597	420	7
7	87954	440	0
7	93291	460	10.333333333333
7	98636	480	2
7	103925	500	0.5
7	109213	520	nan
7	114512	540	1.3333333333333
7	119830	560	0.33333333333333
7	125197	580	1.3333333333333
7	130459	600	2
7	135798	620	1.3
7	141013	640	0.66666666666667
7	146351	660	0.91666666666667
7	151590	680	2.9166666666667
7	156832	700	nan
7	162080	720	1
7	167319	740	6.3333333333333
7	172593	760	8
7	178005	780	2
7	183334	800	12
7	188639	820	2.9166666666667
7	193879	840	3.2
7	199198	860	0.33333333333333
7	204594	880	0
7	210016	900	1.7
7	215345	920	0.91666666666667
7	220643	940	nan
7	225959	960	3.3333333333333
7	231247	980	1.3333333333333
7	236534	1000	4.3333333333333
7	241916	1020	nan
7	247247	1040	nan
7	252458	1060	2
7	257687	1080	2
7	262939	1100	14.25
7	268181	1120	2
7	273489	1140	2
7	278767	1160	12.5
7	284100	1180	2
7	289435	1200	3
7	294722	1220	1.7
7	299986	1240	0.66666666666667
7	305305	1260	nan
7	310684	1280	3
7	315924	1300	0
7	321318	1320	nan
7	326711	1340	6
7	332117	1360	2.3333333333333
7	337468	1380	nan
7	342881	1400	2
7	348213	1420	0.66666666666667
7	353641	1440	0
7	358921	1460	4.3333333333333
7	364307	1480	nan
7	369563	1500	0.5
7	374792	1520	0.33333333333333
7	380095	1540	0
7	385307	1560	nan
7	390586	1580	nan
7	395963	1600	nan
7	401257	1620	2
7	406643	1640	0
7	411967	1660	1.3333333333333
7	417233	1680	3.2
7	422511	1700	nan
7	427850	1720	7
7	433196	1740	nan
7	438630	1760	4.7
7	444025	1780	12.5
7	449361	1800	nan
7	454252	1820	8
7	458443	1840	1.3333333333333
7	462183	1860	0.33333333333333
7	465553	1880	0.25
7	468501	1900	nan
7	471059	1920	nan
7	473029	1940	0
7	474674	1960	nan
7	475727	1980	nan
7	476252	2000	nan
8	34610	240	8.9
8	39848	260	8.8
8	45067	280	8.9268292682927
8	50383	300	8.7560975609756
8	55698	320	8.925
8	61078	340	8.9761904761905
8	66450	360	8.8780487804878
8	71874	380	9.175
8	77225	400	8.975
8	82597	420	9.15
8	87954	440	9.175
8	93291	460	8.7380952380952
8	98636	480	8.8048780487805
8	103925	500	8.925
8	109213	520	8.9
8	114512	540	8.85
8	119830	560	9.2307692307692
8	125197	580	9.05
8	130459	600	8.9268292682927
8	135798	620	8.7560975609756
8	141013	640	8.6829268292683
8	146351	660	8.8780487804878
8	151590	680	9.0769230769231
8	156832	700	8.7073170731707
8	162080	720	9.025
8	167319	740	9.0512820512821
8	172593	760	8.7435897435897
8	178005	780	9.0243902439024
8	183334	800	9
8	188639	820	8.975
8	193879	840	8.7560975609756
8	199198	860	9.025641025641
8	204594	880	8.9024390243902
8	210016	900	9.1219512195122
8	215345	920	9.2564102564103
8	220643	940	8.875
8	225959	960	9.2564102564103
8	231247	980	9.025
8	236534	1000	8.8048780487805
8	241916	1020	9.1219512195122
8	247247	1040	8.9512195121951
8	252458	1060	8.6585365853659
8	257687	1080	8.609756097561
8	262939	1100	9.025641025641
8	268181	1120	9.1
8	273489	1140	8.95
8	278767	1160	8.825
8	284100	1180	8.975
8	289435	1200	9.075
8	294722	1220	8.95
8	299986	1240	9.1025641025641
8	305305	1260	9.1
8	310684	1280	9.0487804878049
8	315924	1300	9
8	321318	1320	8.95
8	326711	1340	9.3076923076923
8	332117	1360	9.2051282051282
8	337468	1380	8.9
8	342881	1400	8.9268292682927
8	348213	1420	8.8048780487805
8	353641	1440	9.1463414634146
8	358921	1460	9.0769230769231
8	364307	1480	8.8536585365854
8	369563	1500	8.8205128205128
8	374792	1520	8.925
8	380095	1540	9.025
8	385307	1560	8.85
8	390586	1580	8.85
8	395963	1600	8.9756097560976
8	401257	1620	8.9512195121951
8	406643	1640	9.0731707317073
8	411967	1660	9.2820512820513
8	417233	1680	8.7317073170732
8	422511	1700	9.1538461538462
8	427850	1720	9.05
8	433196	1740	8.925
8	438630	1760	8.9268292682927
8	444025	1780	8.925
8	449361	1800	9.1025641025641
8	454252	1820	8.7105263157895
8	458443	1840	8.1764705882353
8	462183	1860	8.3225806451613
8	465553	1880	8.4074074074074
8	468501	1900	8.1304347826087
8	471059	1920	7.8095238095238
8	473029	1940	7.8823529411765
8	474674	1960	7.2142857142857
8	475727	1980	6.9090909090909
8	476252	2000	4.5714285714286
9	34610	240	1.4641003188271
9	39848	260	1.7423826892785
9	45067	280	1.489802736983
9	50383	300	2.0221336232415
9	55698	320	1.7597712555315
9	61078	340	2.1240561202234
9	66450	360	1.9646261979219
9	71874	380	1.7080127904403
9	77225	400	1.9012479032845
9	82597	420	1.5778921350154
9	87954	440	1.599479081868
9	93291	460	1.7677258893779
9	98636	480	1.6616183706724
9	103925	500	1.685344064393
9	109213	520	1.5656570669473
9	114512	540	1.8334498797454
9	119830	560	1.5804985632711
9	125197	580	1.6478424121816
9	130459	600	1.6641851444842
9	135798	620	1.7432797796808
9	141013	640	1.7239348072106
9	146351	660	1.7203941692417
9	151590	680	1.7378846092246
9	156832	700	2.112390854447
9	162080	720	1.4230249470758
9	167319	740	1.5551056479379
9	172593	760	2.1486586846333
9	178005	780	1.9037831399354
9	183334	800	1.7394369852458
9	188639	820	1.5768761719103
9	193879	840	1.8544606736849
9	199198	860	1.6620719391483
9	204594	880	1.82763341577
9	210016	900	1.8734343056432
9	215345	920	1.3517619830574
9	220643	940	1.620185174602
9	225959	960	1.6814459428835
9	231247	980	1.8465143878712
9	236534	1000	1.9902199902916
9	241916	1020	1.8192735081787
9	247247	1040	1.6575768385236
9	252458	1060	1.6824053628297
9	257687	1080	1.9859260910277
9	262939	1100	1.9666586609778
9	268181	1120	1.836942833721
9	273489	1140	1.9864928507684
9	278767	1160	1.7670415664143
9	284100	1180	1.5440124218977
9	289435	1200	1.8998987827291
9	294722	1220	1.893985081034
9	299986	1240	1.2310644045504
9	305305	1260	1.691608247065
9	310684	1280	1.6725910963561
9	315924	1300	1.5217718205054
9	321318	1320	1.5182648665922
9	326711	1340	1.2804983847551
9	332117	1360	1.5420336398045
9	337468	1380	2.3182663726067
9	342881	1400	1.6641851444842
9	348213	1420	1.9002567220658
9	353641	1440	2.0562219677087
9	358921	1460	1.3646787820354
9	364307	1480	1.5741819400844
9	369563	1500	1.4303439938074
9	374792	1520	1.7004901254246
9	380095	1540	1.64062996031
9	385307	1560	1.6416064677236
9	390586	1580	1.8052629611706
9	395963	1600	1.6044906493658
9	401257	1620	1.8296341097634
9	406643	1640	1.5554781242827
9	411967	1660	1.5208847485439
9	417233	1680	2.0127641471854
9	422511	1700	1.8430304212365
9	427850	1720	1.5350603429215
9	433196	1740	1.9399643137083
9	438630	1760	2.2179973388447
9	444025	1780	1.9133471812239
9	449361	1800	1.4831487094917
9	454252	1820	1.2925544525482
9	458443	1840	1.5661299190524
9	462183	1860	1.5575000647232
9	465553	1880	1.865872847083
9	468501	1900	1.8415494421346
9	471059	1920	1.5690458125577
9	473029	1940	1.9000773978044
9	474674	1960	1.4769288003552
9	475727	1980	1.136181803634
9	476252	2000	1.5118578920369
10	34610	240	2.1435897435897
10	39848	260	3.0358974358974
10	45067	280	2.219512195122
10	50383	300	4.0890243902439
10	55698	320	3.0967948717949
10	61078	340	4.5116144018583
10	66450	360	3.859756097561
10	71874	380	2.9173076923077
10	77225	400	3.6147435897436
10	82597	420	2.4897435897436
10	87954	440	2.5583333333333
10	93291	460	3.1248548199768
10	98636	480	2.7609756097561
10	103925	500	2.8403846153846
10	109213	520	2.4512820512821
10	114512	540	3.3615384615385
10	119830	560	2.497975708502
10	125197	580	2.7153846153846
10	130459	600	2.769512195122
10	135798	620	3.0390243902439
10	141013	640	2.9719512195122
10	146351	660	2.959756097561
10	151590	680	3.0202429149798
10	156832	700	4.4621951219512
10	162080	720	2.025
10	167319	740	2.4183535762483
10	172593	760	4.6167341430499
10	178005	780	3.6243902439024
10	183334	800	3.025641025641
10	188639	820	2.4865384615385
10	193879	840	3.4390243902439
10	199198	860	2.7624831309042
10	204594	880	3.340243902439
10	210016	900	3.509756097561
10	215345	920	1.8272604588394
10	220643	940	2.625
10	225959	960	2.8272604588394
10	231247	980	3.4096153846154
10	236534	1000	3.9609756097561
10	241916	1020	3.309756097561
10	247247	1040	2.7475609756098
10	252458	1060	2.830487804878
10	257687	1080	3.9439024390244
10	262939	1100	3.8677462887989
10	268181	1120	3.374358974359
10	273489	1140	3.9461538461538
10	278767	1160	3.1224358974359
10	284100	1180	2.3839743589744
10	289435	1200	3.6096153846154
10	294722	1220	3.5871794871795
10	299986	1240	1.5155195681511
10	305305	1260	2.8615384615385
10	310684	1280	2.7975609756098
10	315924	1300	2.3157894736842
10	321318	1320	2.3051282051282
10	326711	1340	1.6396761133603
10	332117	1360	2.3778677462888
10	337468	1380	5.374358974359
10	342881	1400	2.769512195122
10	348213	1420	3.6109756097561
10	353641	1440	4.2280487804878
10	358921	1460	1.8623481781377
10	364307	1480	2.4780487804878
10	369563	1500	2.0458839406208
10	374792	1520	2.8916666666667
10	380095	1540	2.6916666666667
10	385307	1560	2.6948717948718
10	390586	1580	3.2589743589744
10	395963	1600	2.5743902439024
10	401257	1620	3.3475609756098
10	406643	1640	2.419512195122
10	411967	1660	2.3130904183536
10	417233	1680	4.0512195121951
10	422511	1700	3.3967611336032
10	427850	1720	2.3564102564103
10	433196	1740	3.7634615384615
10	438630	1760	4.919512195122
10	444025	1780	3.6608974358974
10	449361	1800	2.1997300944669
10	454252	1820	1.6706970128023
10	458443	1840	2.4527629233512
10	462183	1860	2.4258064516129
10	465553	1880	3.4814814814815
10	468501	1900	3.3913043478261
10	471059	1920	2.4619047619048
10	473029	1940	3.6102941176471
10	474674	1960	2.1813186813187
10	475727	1980	1.2909090909091
10	476252	2000	2.2857142857143
11	34610	240	139.85467551282
11	39848	260	49.822194755312
11	45067	280	44.874648618525
11	50383	300	45.499377067501
11	55698	320	180.04525072008
11	61078	340	146.64811337594
11	66450	360	230.60466149533
11	71874	380	0
11	77225	400	45.465005077201
11	82597	420	138.08244831858
11	87954	440	91.197668572683
11	93291	460	137.78749757957
11	98636	480	91.061503752711
11	103925	500	90.908364740445
11	109213	520	45.739161647972
11	114512	540	139.33960186419
11	119830	560	134.51743664056
11	125197	580	138.26870349969
11	130459	600	90.53969674844
11	135798	620	231.75661884741
11	141013	640	181.23924299824
11	146351	660	180.01256618646
11	151590	680	183.61736137012
11	156832	700	44.39259273824
11	162080	720	137.52744572961
11	167319	740	137.57503690367
11	172593	760	90.458442981384
11	178005	780	92.080701100941
11	183334	800	182.83385354963
11	188639	820	183.88344989505
11	193879	840	233.48324810054
11	199198	860	135.6903003802
11	204594	880	97.63026366664
11	210016	900	230.90397021798
11	215345	920	183.60209709192
11	220643	940	47.984248566016
11	225959	960	188.70228796913
11	231247	980	136.653574817
11	236534	1000	137.07521794205
11	241916	1020	45.91942814776
11	247247	1040	46.549296234317
11	252458	1060	89.798646132663
11	257687	1080	93.748383356864
11	262939	1100	178.15522145737
11	268181	1120	89.387113640604
11	273489	1140	91.243498725106
11	278767	1160	95.416124898638
11	284100	1180	91.189256594067
11	289435	1200	183.90442490599
11	294722	1220	233.04496484058
11	299986	1240	183.10536137511
11	305305	1260	43.895902198828
11	310684	1280	138.45713474431
11	315924	1300	92.31116100701
11	321318	1320	45.903715631493
11	326711	1340	180.21643919473
11	332117	1360	136.47288857161
11	337468	1380	46.585698405324
11	342881	1400	92.425974534132
11	348213	1420	184.2490714764
11	353641	1440	90.048690471225
11	358921	1460	137.0502461609
11	364307	1480	0
11	369563	1500	90.875024225305
11	374792	1520	136.14713763881
11	380095	1540	87.66301651021
11	385307	1560	47.590868736667
11	390586	1580	44.50457625684
11	395963	1600	0
11	401257	1620	90.002070711377
11	406643	1640	92.360674254694
11	411967	1660	141.26040278615
11	417233	1680	231.7859305309
11	422511	1700	44.935308150495
11	427850	1720	137.10981944962
11	433196	1740	45.227560091352
11	438630	1760	228.86430229883
11	444025	1780	90.954460944463
11	449361	1800	44.844912235302
11	454252	1820	90.360851345829
11	458443	1840	140.3704179401
11	462183	1860	137.69934433787
11	465553	1880	180.74879504248
11	468501	1900	0
11	471059	1920	45.40545804405
11	473029	1940	139.11580364605
11	474674	1960	46.8901268169
11	475727	1980	47.005230173981
11	476252	2000	48.67758870616
12	34610	240	46.618225170941
12	39848	260	49.822194755312
12	45067	280	44.874648618525
12	50383	300	45.499377067501
12	55698	320	45.01131268002
12	61078	340	48.882704458647
12	66450	360	46.120932299066
12	71874	380	nan
12	77225	400	45.465005077201
12	82597	420	46.027482772859
12	87954	440	45.598834286342
12	93291	460	45.929165859857
12	98636	480	45.530751876355
12	103925	500	45.454182370223
12	109213	520	45.739161647972
12	114512	540	46.446533954729
12	119830	560	44.839145546852
12	125197	580	46.089567833229
12	130459	600	45.26984837422
12	135798	620	46.351323769482
12	141013	640	45.30981074956
12	146351	660	45.003141546616
12	151590	680	45.904340342531
12	156832	700	44.39259273824
12	162080	720	45.84248190987
12	167319	740	45.858345634556
12	172593	760	45.229221490692
12	178005	780	46.040350550471
12	183334	800	45.708463387406
12	188639	820	45.970862473763
12	193879	840	46.696649620108
12	199198	860	45.230100126735
12	204594	880	48.81513183332
12	210016	900	46.180794043597
12	215345	920	45.900524272981
12	220643	940	47.984248566016
12	225959	960	47.175571992282
12	231247	980	45.551191605667
12	236534	1000	45.691739314016
12	241916	1020	45.91942814776
12	247247	1040	46.549296234317
12	252458	1060	44.899323066332
12	257687	1080	46.874191678432
12	262939	1100	44.538805364342
12	268181	1120	44.693556820302
12	273489	1140	45.621749362553
12	278767	1160	47.708062449319
12	284100	1180	45.594628297033
12	289435	1200	45.976106226497
12	294722	1220	46.608992968115
12	299986	1240	45.776340343778
12	305305	1260	43.895902198828
12	310684	1280	46.152378248104
12	315924	1300	46.155580503505
12	321318	1320	45.903715631493
12	326711	1340	45.054109798683
12	332117	1360	45.490962857204
12	337468	1380	46.585698405324
12	342881	1400	46.212987267066
12	348213	1420	46.0622678691
12	353641	1440	45.024345235612
12	358921	1460	45.683415386968
12	364307	1480	nan
12	369563	1500	45.437512112653
12	374792	1520	45.382379212938
12	380095	1540	43.831508255105
12	385307	1560	47.590868736667
12	390586	1580	44.50457625684
12	395963	1600	nan
12	401257	1620	45.001035355689
12	406643	1640	46.180337127347
12	411967	1660	47.086800928717
12	417233	1680	46.357186106179
12	422511	1700	44.935308150495
12	427850	1720	45.703273149873
12	433196	1740	45.227560091352
12	438630	1760	45.772860459767
12	444025	1780	45.477230472231
12	449361	1800	44.844912235302
12	454252	1820	45.180425672915
12	458443	1840	46.790139313366
12	462183	1860	45.899781445957
12	465553	1880	45.18719876062
12	468501	1900	nan
12	471059	1920	45.40545804405
12	473029	1940	46.371934548683
12	474674	1960	46.8901268169
12	475727	1980	47.005230173981
12	476252	2000	48.67758870616
13	34610	240	1.0096308275097
13	39848	260	nan
13	45067	280	nan
13	50383	300	nan
13	55698	320	0.57108357407712
13	61078	340	3.0842711315675
13	66450	360	0.87958597242701
13	71874	380	nan
13	77225	400	nan
13	82597	420	1.3165418644871
13	87954	440	0.12165195677966
13	93291	460	1.0843529186162
13	98636	480	0.25998952061009
13	103925	500	0.57794644800334
13	109213	520	nan
13	114512	540	1.0836809447724
13	119830	560	0.51603238507026
13	125197	580	1.8420837642665
13	130459	600	0.4129760047699
13	135798	620	2.5243055963186
13	141013	640	0.61130937472401
13	146351	660	0.5641441023728
13	151590	680	2.2698680128346
13	156832	700	nan
13	162080	720	2.0774571633972
13	167319	740	0.84763172467249
13	172593	760	1.9766182149285
13	178005	780	0.35813098579624
13	183334	800	1.8751690370347
13	188639	820	0.47869210650624
13	193879	840	2.2988530969065
13	199198	860	0.24033083333366
13	204594	880	0.093869390815931
13	210016	900	0.97953994779332
13	215345	920	1.0926362854074
13	220643	940	nan
13	225959	960	2.4374679918731
13	231247	980	1.5486027144738
13	236534	1000	0.85379322715288
13	241916	1020	nan
13	247247	1040	nan
13	252458	1060	0.36743601281734
13	257687	1080	2.3702168543122
13	262939	1100	1.0860178754127
13	268181	1120	1.2061260400586
13	273489	1140	1.9977584036476
13	278767	1160	3.1353758097653
13	284100	1180	2.1080748754073
13	289435	1200	1.4288700890158
13	294722	1220	0.32251318344497
13	299986	1240	0.44511809600686
13	305305	1260	nan
13	310684	1280	0.25080175009415
13	315924	1300	0.35444320000166
13	321318	1320	nan
13	326711	1340	3.3729075053795
13	332117	1360	0.83654625469247
13	337468	1380	nan
13	342881	1400	1.7571814093941
13	348213	1420	0.93827154895123
13	353641	1440	0.5718951403298
13	358921	1460	0.53212014086506
13	364307	1480	nan
13	369563	1500	0.70665692885467
13	374792	1520	0.40623450237228
13	380095	1540	0.34808724276067
13	385307	1560	nan
13	390586	1580	nan
13	395963	1600	nan
13	401257	1620	0.92249501645146
13	406643	1640	0.88672374848699
13	411967	1660	1.124748989627
13	417233	1680	1.4929086876811
13	422511	1700	nan
13	427850	1720	0.92952823997858