version 2
run statisticRVV-91-20150325-03:59:00-5932
attr c 4
attr configname statisticRVV
attr datetime 20150325-03:59:00
attr experiment statisticRVV
attr inifile omnetpp.ini
attr iterationvars "$sc=\"erlangen-low.launchd.xml\", $p=1/5, $c=4"
attr iterationvars2 "$sc=\"erlangen-low.launchd.xml\", $p=1/5, $c=4, $repetition=1"
attr measurement "$sc=\"erlangen-low.launchd.xml\", $p=1/5, $c=4"
attr network RSUExampleScenario
attr p 1/5
attr processid 5932
attr repetition 1
attr replication #1
attr resultdir results
attr runnumber 91
attr sc "\"erlangen-low.launchd.xml\""
attr seedset 91

vector 0  RSUExampleScenario.rsu[0].appl  Number_CH  ETV
vector 1  RSUExampleScenario.rsu[0].appl  Number_ON  ETV
vector 2  RSUExampleScenario.rsu[0].appl  Number_FN  ETV
vector 3  RSUExampleScenario.rsu[0].appl  Number_CH_Losts  ETV
vector 4  RSUExampleScenario.rsu[0].appl  Mean_Cluster_Size  ETV
vector 5  RSUExampleScenario.rsu[0].appl  StdDev_Cluster_Size  ETV
vector 6  RSUExampleScenario.rsu[0].appl  Variance_Cluster_Size  ETV
vector 7  RSUExampleScenario.rsu[0].appl  Mean_Neighbors  ETV
vector 8  RSUExampleScenario.rsu[0].appl  StdDev_Neighbors  ETV
vector 9  RSUExampleScenario.rsu[0].appl  Variance_Neighbors  ETV
vector 10  RSUExampleScenario.rsu[0].appl  Total_CH_Utility  ETV
vector 11  RSUExampleScenario.rsu[0].appl  Mean_CH_Utility  ETV
vector 12  RSUExampleScenario.rsu[0].appl  StdDev_CH_Utility  ETV
vector 13  RSUExampleScenario.rsu[0].appl  Variance_CH_Utility  ETV
vector 14  RSUExampleScenario.rsu[0].appl  Total_exp_CH_Utility  ETV
vector 15  RSUExampleScenario.rsu[0].appl  Mean_exp_CH_Utility  ETV
vector 16  RSUExampleScenario.rsu[0].appl  StdDev_exp_CH_Utility  ETV
vector 17  RSUExampleScenario.rsu[0].appl  Variance_exp_CH_Utility  ETV
vector 18  RSUExampleScenario.rsu[0].appl  Total_ON_Utility  ETV
vector 19  RSUExampleScenario.rsu[0].appl  Mean_ON_Utility  ETV
vector 20  RSUExampleScenario.rsu[0].appl  StdDev_ON_Utility  ETV
vector 21  RSUExampleScenario.rsu[0].appl  Variance_ON_Utility  ETV
vector 22  RSUExampleScenario.rsu[0].appl  Total_exp_ON_Utility  ETV
vector 23  RSUExampleScenario.rsu[0].appl  Mean_exp_ON_Utility  ETV
vector 24  RSUExampleScenario.rsu[0].appl  StdDev_exp_ON_Utility  ETV
vector 25  RSUExampleScenario.rsu[0].appl  Variance_exp_ON_Utility  ETV
0	34809	240	5
0	40114	260	6
0	45467	280	5
0	50784	300	5
0	56042	320	7
0	61393	340	6
0	66699	360	5
0	71953	380	8
0	77176	400	7
0	82533	420	8
0	87811	440	4
0	93229	460	7
0	98499	480	7
0	103782	500	8
0	109036	520	6
0	114358	540	4
0	119723	560	4
0	125051	580	5
0	130350	600	5
0	135610	620	12
0	140989	640	4
0	146299	660	4
0	151549	680	8
0	156942	700	2
0	162230	720	9
0	167468	740	6
0	172870	760	3
0	178131	780	5
0	183470	800	8
0	188698	820	7
0	194091	840	6
0	199290	860	4
0	204590	880	9
0	210035	900	5
0	215465	920	6
0	220814	940	8
0	226100	960	8
0	231427	980	8
0	236723	1000	4
0	242032	1020	6
0	247332	1040	10
0	252707	1060	6
0	257916	1080	2
0	263231	1100	4
0	268550	1120	3
0	273913	1140	5
0	279380	1160	5
0	284691	1180	6
0	289961	1200	6
0	295273	1220	7
0	300552	1240	6
0	305768	1260	7
0	311099	1280	7
0	316408	1300	8
0	321763	1320	7
0	327196	1340	7
0	332584	1360	5
0	337934	1380	3
0	343198	1400	9
0	348509	1420	6
0	353809	1440	4
0	359085	1460	10
0	364426	1480	5
0	369726	1500	5
0	375049	1520	6
0	380329	1540	5
0	385715	1560	9
0	391074	1580	4
0	396427	1600	8
0	401816	1620	5
0	407143	1640	7
0	412334	1660	4
0	417610	1680	7
0	422942	1700	5
0	428273	1720	4
0	433551	1740	4
0	438854	1760	4
0	444156	1780	7
0	449483	1800	7
0	454386	1820	3
0	458593	1840	2
0	462475	1860	5
0	465868	1880	3
0	468850	1900	1
0	471331	1920	4
0	473380	1940	2
0	474933	1960	2
0	475951	1980	1
0	476519	2000	1
1	34809	240	7
1	40114	260	9
1	45467	280	6
1	50784	300	7
1	56042	320	9
1	61393	340	7
1	66699	360	6
1	71953	380	8
1	77176	400	11
1	82533	420	12
1	87811	440	6
1	93229	460	10
1	98499	480	13
1	103782	500	13
1	109036	520	7
1	114358	540	4
1	119723	560	4
1	125051	580	7
1	130350	600	6
1	135610	620	18
1	140989	640	6
1	146299	660	4
1	151549	680	10
1	156942	700	3
1	162230	720	13
1	167468	740	8
1	172870	760	4
1	178131	780	6
1	183470	800	9
1	188698	820	9
1	194091	840	7
1	199290	860	5
1	204590	880	12
1	210035	900	7
1	215465	920	7
1	220814	940	10
1	226100	960	9
1	231427	980	11
1	236723	1000	4
1	242032	1020	9
1	247332	1040	12
1	252707	1060	9
1	257916	1080	3
1	263231	1100	4
1	268550	1120	4
1	273913	1140	5
1	279380	1160	7
1	284691	1180	8
1	289961	1200	7
1	295273	1220	7
1	300552	1240	8
1	305768	1260	10
1	311099	1280	9
1	316408	1300	11
1	321763	1320	9
1	327196	1340	9
1	332584	1360	7
1	337934	1380	4
1	343198	1400	11
1	348509	1420	8
1	353809	1440	5
1	359085	1460	12
1	364426	1480	7
1	369726	1500	6
1	375049	1520	7
1	380329	1540	6
1	385715	1560	9
1	391074	1580	5
1	396427	1600	9
1	401816	1620	8
1	407143	1640	10
1	412334	1660	4
1	417610	1680	10
1	422942	1700	7
1	428273	1720	5
1	433551	1740	6
1	438854	1760	4
1	444156	1780	9
1	449483	1800	9
1	454386	1820	4
1	458593	1840	2
1	462475	1860	6
1	465868	1880	3
1	468850	1900	1
1	471331	1920	5
1	473380	1940	3
1	474933	1960	3
1	475951	1980	2
1	476519	2000	2
2	34809	240	28
2	40114	260	26
2	45467	280	30
2	50784	300	29
2	56042	320	24
2	61393	340	28
2	66699	360	29
2	71953	380	24
2	77176	400	22
2	82533	420	19
2	87811	440	32
2	93229	460	23
2	98499	480	20
2	103782	500	19
2	109036	520	27
2	114358	540	33
2	119723	560	33
2	125051	580	30
2	130350	600	28
2	135610	620	11
2	140989	640	32
2	146299	660	32
2	151549	680	23
2	156942	700	35
2	162230	720	17
2	167468	740	25
2	172870	760	34
2	178131	780	29
2	183470	800	23
2	188698	820	24
2	194091	840	28
2	199290	860	32
2	204590	880	20
2	210035	900	28
2	215465	920	28
2	220814	940	23
2	226100	960	22
2	231427	980	21
2	236723	1000	32
2	242032	1020	26
2	247332	1040	18
2	252707	1060	25
2	257916	1080	36
2	263231	1100	32
2	268550	1120	34
2	273913	1140	31
2	279380	1160	30
2	284691	1180	27
2	289961	1200	27
2	295273	1220	26
2	300552	1240	26
2	305768	1260	22
2	311099	1280	24
2	316408	1300	21
2	321763	1320	24
2	327196	1340	25
2	332584	1360	29
2	337934	1380	34
2	343198	1400	20
2	348509	1420	26
2	353809	1440	32
2	359085	1460	19
2	364426	1480	28
2	369726	1500	29
2	375049	1520	26
2	380329	1540	28
2	385715	1560	22
2	391074	1580	33
2	396427	1600	24
2	401816	1620	27
2	407143	1640	24
2	412334	1660	32
2	417610	1680	24
2	422942	1700	29
2	428273	1720	32
2	433551	1740	31
2	438854	1760	32
2	444156	1780	24
2	449483	1800	25
2	454386	1820	30
2	458593	1840	30
2	462475	1860	20
2	465868	1880	21
2	468850	1900	21
2	471331	1920	12
2	473380	1940	12
2	474933	1960	9
2	475951	1980	7
2	476519	2000	4
3	34809	240	1
3	40114	260	3
3	45467	280	2
3	50784	300	2
3	56042	320	5
3	61393	340	0
3	66699	360	2
3	71953	380	4
3	77176	400	1
3	82533	420	1
3	87811	440	2
3	93229	460	2
3	98499	480	2
3	103782	500	2
3	109036	520	3
3	114358	540	3
3	119723	560	1
3	125051	580	3
3	130350	600	2
3	135610	620	3
3	140989	640	2
3	146299	660	1
3	151549	680	0
3	156942	700	2
3	162230	720	2
3	167468	740	1
3	172870	760	0
3	178131	780	0
3	183470	800	1
3	188698	820	5
3	194091	840	2
3	199290	860	3
3	204590	880	2
3	210035	900	3
3	215465	920	3
3	220814	940	1
3	226100	960	3
3	231427	980	0
3	236723	1000	0
3	242032	1020	2
3	247332	1040	4
3	252707	1060	1
3	257916	1080	2
3	263231	1100	2
3	268550	1120	0
3	273913	1140	3
3	279380	1160	1
3	284691	1180	1
3	289961	1200	2
3	295273	1220	4
3	300552	1240	2
3	305768	1260	3
3	311099	1280	1
3	316408	1300	2
3	321763	1320	2
3	327196	1340	3
3	332584	1360	0
3	337934	1380	1
3	343198	1400	0
3	348509	1420	0
3	353809	1440	1
3	359085	1460	4
3	364426	1480	5
3	369726	1500	2
3	375049	1520	0
3	380329	1540	2
3	385715	1560	5
3	391074	1580	2
3	396427	1600	5
3	401816	1620	2
3	407143	1640	0
3	412334	1660	1
3	417610	1680	0
3	422942	1700	2
3	428273	1720	1
3	433551	1740	1
3	438854	1760	2
3	444156	1780	4
3	449483	1800	4
3	454386	1820	3
3	458593	1840	4
3	462475	1860	1
3	465868	1880	0
3	468850	1900	1
3	471331	1920	1
3	473380	1940	0
3	474933	1960	0
3	475951	1980	0
3	476519	2000	1
4	34809	240	1.4
4	40114	260	1.5
4	45467	280	1.2
4	50784	300	1.4
4	56042	320	1.2857142857143
4	61393	340	1.1666666666667
4	66699	360	1.2
4	71953	380	1
4	77176	400	1.5714285714286
4	82533	420	1.5
4	87811	440	1.5
4	93229	460	1.4285714285714
4	98499	480	1.8571428571429
4	103782	500	1.625
4	109036	520	1.1666666666667
4	114358	540	1
4	119723	560	1
4	125051	580	1.4
4	130350	600	1.2
4	135610	620	1.5
4	140989	640	1.5
4	146299	660	1
4	151549	680	1.25
4	156942	700	1.5
4	162230	720	1.4444444444444
4	167468	740	1.3333333333333
4	172870	760	1.3333333333333
4	178131	780	1.2
4	183470	800	1.125
4	188698	820	1.2857142857143
4	194091	840	1.1666666666667
4	199290	860	1.25
4	204590	880	1.3333333333333
4	210035	900	1.4
4	215465	920	1.1666666666667
4	220814	940	1.25
4	226100	960	1.125
4	231427	980	1.375
4	236723	1000	1
4	242032	1020	1.5
4	247332	1040	1.2
4	252707	1060	1.5
4	257916	1080	1.5
4	263231	1100	1
4	268550	1120	1.3333333333333
4	273913	1140	1
4	279380	1160	1.4
4	284691	1180	1.3333333333333
4	289961	1200	1.1666666666667
4	295273	1220	1
4	300552	1240	1.3333333333333
4	305768	1260	1.4285714285714
4	311099	1280	1.2857142857143
4	316408	1300	1.375
4	321763	1320	1.2857142857143
4	327196	1340	1.2857142857143
4	332584	1360	1.4
4	337934	1380	1.3333333333333
4	343198	1400	1.2222222222222
4	348509	1420	1.3333333333333
4	353809	1440	1.25
4	359085	1460	1.2
4	364426	1480	1.4
4	369726	1500	1.2
4	375049	1520	1.1666666666667
4	380329	1540	1.2
4	385715	1560	1
4	391074	1580	1.25
4	396427	1600	1.125
4	401816	1620	1.6
4	407143	1640	1.4285714285714
4	412334	1660	1
4	417610	1680	1.4285714285714
4	422942	1700	1.4
4	428273	1720	1.25
4	433551	1740	1.5
4	438854	1760	1
4	444156	1780	1.2857142857143
4	449483	1800	1.2857142857143
4	454386	1820	1.3333333333333
4	458593	1840	1
4	462475	1860	1.2
4	465868	1880	1
4	468850	1900	1
4	471331	1920	1.25
4	473380	1940	1.5
4	474933	1960	1.5
4	475951	1980	2
4	476519	2000	2
5	34809	240	0.54772255750517
5	40114	260	0.54772255750517
5	45467	280	0.44721359549996
5	50784	300	0.54772255750517
5	56042	320	0.48795003647427
5	61393	340	0.40824829046386
5	66699	360	0.44721359549996
5	71953	380	0
5	77176	400	0.53452248382485
5	82533	420	0.53452248382485
5	87811	440	0.57735026918963
5	93229	460	0.53452248382485
5	98499	480	0.37796447300923
5	103782	500	0.51754916950677
5	109036	520	0.40824829046386
5	114358	540	0
5	119723	560	0
5	125051	580	0.54772255750517
5	130350	600	0.44721359549996
5	135610	620	0.52223296786709
5	140989	640	0.57735026918963
5	146299	660	0
5	151549	680	0.46291004988628
5	156942	700	0.70710678118655
5	162230	720	0.72648315725678
5	167468	740	0.51639777949432
5	172870	760	0.57735026918963
5	178131	780	0.44721359549996
5	183470	800	0.35355339059327
5	188698	820	0.48795003647427
5	194091	840	0.40824829046386
5	199290	860	0.5
5	204590	880	0.5
5	210035	900	0.54772255750517
5	215465	920	0.40824829046386
5	220814	940	0.46291004988628
5	226100	960	0.35355339059327
5	231427	980	0.51754916950677
5	236723	1000	0
5	242032	1020	0.54772255750517
5	247332	1040	0.42163702135578
5	252707	1060	0.54772255750517
5	257916	1080	0.70710678118655
5	263231	1100	0
5	268550	1120	0.57735026918963
5	273913	1140	0
5	279380	1160	0.54772255750517
5	284691	1180	0.51639777949432
5	289961	1200	0.40824829046386
5	295273	1220	0
5	300552	1240	0.51639777949432
5	305768	1260	0.53452248382485
5	311099	1280	0.48795003647427
5	316408	1300	0.51754916950677
5	321763	1320	0.48795003647427
5	327196	1340	0.48795003647427
5	332584	1360	0.54772255750517
5	337934	1380	0.57735026918963
5	343198	1400	0.4409585518441
5	348509	1420	0.51639777949432
5	353809	1440	0.5
5	359085	1460	0.42163702135578
5	364426	1480	0.54772255750517
5	369726	1500	0.44721359549996
5	375049	1520	0.40824829046386
5	380329	1540	0.44721359549996
5	385715	1560	0
5	391074	1580	0.5
5	396427	1600	0.35355339059327
5	401816	1620	0.54772255750517
5	407143	1640	0.53452248382485
5	412334	1660	0
5	417610	1680	0.53452248382485
5	422942	1700	0.54772255750517
5	428273	1720	0.5
5	433551	1740	0.57735026918963
5	438854	1760	0
5	444156	1780	0.48795003647427
5	449483	1800	0.48795003647427
5	454386	1820	0.57735026918963
5	458593	1840	0
5	462475	1860	0.44721359549996
5	465868	1880	0
5	468850	1900	nan
5	471331	1920	0.5
5	473380	1940	0.70710678118655
5	474933	1960	0.70710678118655
5	475951	1980	nan
5	476519	2000	nan
6	34809	240	0.3
6	40114	260	0.3
6	45467	280	0.2
6	50784	300	0.3
6	56042	320	0.23809523809524
6	61393	340	0.16666666666667
6	66699	360	0.2
6	71953	380	0
6	77176	400	0.28571428571429
6	82533	420	0.28571428571429
6	87811	440	0.33333333333333
6	93229	460	0.28571428571429
6	98499	480	0.14285714285714
6	103782	500	0.26785714285714
6	109036	520	0.16666666666667
6	114358	540	0
6	119723	560	0
6	125051	580	0.3
6	130350	600	0.2
6	135610	620	0.27272727272727
6	140989	640	0.33333333333333
6	146299	660	0
6	151549	680	0.21428571428571
6	156942	700	0.5
6	162230	720	0.52777777777778
6	167468	740	0.26666666666667
6	172870	760	0.33333333333333
6	178131	780	0.2
6	183470	800	0.125
6	188698	820	0.23809523809524
6	194091	840	0.16666666666667
6	199290	860	0.25
6	204590	880	0.25
6	210035	900	0.3
6	215465	920	0.16666666666667
6	220814	940	0.21428571428571
6	226100	960	0.125
6	231427	980	0.26785714285714
6	236723	1000	0
6	242032	1020	0.3
6	247332	1040	0.17777777777778
6	252707	1060	0.3
6	257916	1080	0.5
6	263231	1100	0
6	268550	1120	0.33333333333333
6	273913	1140	0
6	279380	1160	0.3
6	284691	1180	0.26666666666667
6	289961	1200	0.16666666666667
6	295273	1220	0
6	300552	1240	0.26666666666667
6	305768	1260	0.28571428571429
6	311099	1280	0.23809523809524
6	316408	1300	0.26785714285714
6	321763	1320	0.23809523809524
6	327196	1340	0.23809523809524
6	332584	1360	0.3
6	337934	1380	0.33333333333333
6	343198	1400	0.19444444444444
6	348509	1420	0.26666666666667
6	353809	1440	0.25
6	359085	1460	0.17777777777778
6	364426	1480	0.3
6	369726	1500	0.2
6	375049	1520	0.16666666666667
6	380329	1540	0.2
6	385715	1560	0
6	391074	1580	0.25
6	396427	1600	0.125
6	401816	1620	0.3
6	407143	1640	0.28571428571429
6	412334	1660	0
6	417610	1680	0.28571428571429
6	422942	1700	0.3
6	428273	1720	0.25
6	433551	1740	0.33333333333333
6	438854	1760	0
6	444156	1780	0.23809523809524
6	449483	1800	0.23809523809524
6	454386	1820	0.33333333333333
6	458593	1840	0
6	462475	1860	0.2
6	465868	1880	0
6	468850	1900	nan
6	471331	1920	0.25
6	473380	1940	0.5
6	474933	1960	0.5
6	475951	1980	nan
6	476519	2000	nan
7	34809	240	8.75
7	40114	260	8.9512195121951
7	45467	280	8.7073170731707
7	50784	300	8.9512195121951
7	56042	320	8.85
7	61393	340	9
7	66699	360	9.025
7	71953	380	8.975
7	77176	400	8.875
7	82533	420	9.0769230769231
7	87811	440	8.8571428571429
7	93229	460	9.1538461538462
7	98499	480	9.125
7	103782	500	8.95
7	109036	520	8.85
7	114358	540	8.8048780487805
7	119723	560	8.8536585365854
7	125051	580	8.5952380952381
7	130350	600	8.8717948717949
7	135610	620	8.8780487804878
7	140989	640	8.952380952381
7	146299	660	8.925
7	151549	680	8.8292682926829
7	156942	700	9.175
7	162230	720	9.025641025641
7	167468	740	9
7	172870	760	8.8048780487805
7	178131	780	9.2
7	183470	800	9.225
7	188698	820	9.1
7	194091	840	8.8292682926829
7	199290	860	8.8780487804878
7	204590	880	8.95
7	210035	900	9.15
7	215465	920	9.219512195122
7	220814	940	9.0487804878049
7	226100	960	9
7	231427	980	9.125
7	236723	1000	9
7	242032	1020	9.075
7	247332	1040	9
7	252707	1060	9
7	257916	1080	8.8292682926829
7	263231	1100	9.025641025641
7	268550	1120	8.9512195121951
7	273913	1140	8.9756097560976
7	279380	1160	9.4
7	284691	1180	9
7	289961	1200	8.975
7	295273	1220	8.775
7	300552	1240	8.925
7	305768	1260	8.8717948717949
7	311099	1280	8.85
7	316408	1300	8.9
7	321763	1320	8.95
7	327196	1340	9.025
7	332584	1360	9.125
7	337934	1380	9.1463414634146
7	343198	1400	9.075
7	348509	1420	8.975
7	353809	1440	8.8292682926829
7	359085	1460	8.7073170731707
7	364426	1480	8.7
7	369726	1500	8.95
7	375049	1520	8.7948717948718
7	380329	1540	9.025641025641
7	385715	1560	9.15
7	391074	1580	8.7857142857143
7	396427	1600	8.9512195121951
7	401816	1620	9.325
7	407143	1640	9.175
7	412334	1660	8.925
7	417610	1680	8.975
7	422942	1700	9.1463414634146
7	428273	1720	9
7	433551	1740	9.075
7	438854	1760	8.925
7	444156	1780	9.1
7	449483	1800	9.0243902439024
7	454386	1820	8.8108108108108
7	458593	1840	8.4117647058824
7	462475	1860	8.6129032258065
7	465868	1880	8.4814814814815
7	468850	1900	8.5652173913043
7	471331	1920	8.1428571428571
7	473380	1940	7.6470588235294
7	474933	1960	7.2857142857143
7	475951	1980	6.5
7	476519	2000	4.8571428571429
8	34809	240	2.1691307487397
8	40114	260	1.92290430745
8	45467	280	2.1476021796299
8	50784	300	2.0242433093899
8	56042	320	1.9020906177017
8	61393	340	2.0124611797498
8	66699	360	1.3865193462177
8	71953	380	1.7757266479403
8	77176	400	1.5555937113758
8	82533	420	1.3055471808003
8	87811	440	1.9326643882554
8	93229	460	2.1093583651316
8	98499	480	1.9106650741669
8	103782	500	1.431334324579
8	109036	520	1.5615574079942
8	114358	540	1.9263892674525
8	119723	560	1.9178239701515
8	125051	580	1.8748596540583
8	130350	600	1.5075160325496
8	135610	620	1.6612513649538
8	140989	640	1.886439166627
8	146299	660	1.6233472857822
8	151549	680	1.9092202469122
8	156942	700	1.5670894137761
8	162230	720	1.7394369852458
8	167468	740	1.5217718205054
8	172870	760	2.2607466929659
8	178131	780	1.7126976771554
8	183470	800	1.5605308104156
8	188698	820	1.498717400364
8	194091	840	1.8828494234058
8	199290	860	1.6612513649538
8	204590	880	1.893985081034
8	210035	900	1.6259119728908
8	215465	920	1.7679394096228
8	220814	940	1.8159187690009
8	226100	960	1.8918106058538
8	231427	980	1.6669871486746
8	236723	1000	1.5191090506255
8	242032	1020	1.4030644117751
8	247332	1040	1.5851878478024
8	252707	1060	1.8116432546314
8	257916	1080	1.9222699995629
8	263231	1100	1.6778303578883
8	268550	1120	2.2577778844718
8	273913	1140	2.1504395466747
8	279380	1160	1.498717400364
8	284691	1180	1.8536173919926
8	289961	1200	1.8465143878712
8	295273	1220	1.9280320776138
8	300552	1240	1.5256356388614
8	305768	1260	1.6729974231504
8	311099	1280	1.3876746829286
8	316408	1300	1.6763819404469
8	321763	1320	1.678674690924
8	327196	1340	1.440930966869
8	332584	1360	1.963611272826
8	337934	1380	2.2864926810484
8	343198	1400	1.9133471812239
8	348509	1420	1.9146868258349
8	353809	1440	1.7015057893582
8	359085	1460	1.9136862652878
8	364426	1480	2.1862038284403
8	369726	1500	2.1596533435027
8	375049	1520	1.489957385111
8	380329	1540	1.7842465531655
8	385715	1560	1.7029386365926
8	391074	1580	1.8939662124593
8	396427	1600	2.1673857468411
8	401816	1620	1.575249268024
8	407143	1640	1.4830235919765
8	412334	1660	1.8029534174906
8	417610	1680	2.0189804484645
8	422942	1700	1.8242940498965
8	428273	1720	1.9081471748861
8	433551	1740	1.4212219372328
8	438854	1760	1.5256356388614
8	444156	1780	1.4464811413592
8	449483	1800	1.5081081671758
8	454386	1820	1.4110248016924
8	458593	1840	1.458883904219
8	462475	1860	1.3826886695816
8	465868	1880	1.9684115104936
8	468850	1900	2.0186873988385
8	471331	1920	1.558387444948
8	473380	1940	1.6179144164088
8	474933	1960	1.5406577730393
8	475951	1980	0.8498365855988
8	476519	2000	1.3451854182691
9	34809	240	4.7051282051282
9	40114	260	3.6975609756098
9	45467	280	4.6121951219512
9	50784	300	4.0975609756098
9	56042	320	3.6179487179487
9	61393	340	4.05
9	66699	360	1.9224358974359
9	71953	380	3.1532051282051
9	77176	400	2.4198717948718
9	82533	420	1.7044534412955
9	87811	440	3.7351916376307
9	93229	460	4.4493927125506
9	98499	480	3.650641025641
9	103782	500	2.0487179487179
9	109036	520	2.4384615384615
9	114358	540	3.7109756097561
9	119723	560	3.6780487804878
9	125051	580	3.5150987224158
9	130350	600	2.2726045883941
9	135610	620	2.759756097561
9	140989	640	3.5586527293844
9	146299	660	2.6352564102564
9	151549	680	3.6451219512195
9	156942	700	2.4557692307692
9	162230	720	3.025641025641
9	167468	740	2.3157894736842
9	172870	760	5.1109756097561
9	178131	780	2.9333333333333
9	183470	800	2.4352564102564
9	188698	820	2.2461538461538
9	194091	840	3.5451219512195
9	199290	860	2.759756097561
9	204590	880	3.5871794871795
9	210035	900	2.6435897435897
9	215465	920	3.1256097560976
9	220814	940	3.2975609756098
9	226100	960	3.5789473684211
9	231427	980	2.7788461538462
9	236723	1000	2.3076923076923
9	242032	1020	1.9685897435897
9	247332	1040	2.5128205128205
9	252707	1060	3.2820512820513
9	257916	1080	3.6951219512195
9	263231	1100	2.8151147098516
9	268550	1120	5.0975609756098
9	273913	1140	4.6243902439024
9	279380	1160	2.2461538461538
9	284691	1180	3.4358974358974
9	289961	1200	3.4096153846154
9	295273	1220	3.7173076923077
9	300552	1240	2.3275641025641
9	305768	1260	2.7989203778677
9	311099	1280	1.925641025641
9	316408	1300	2.8102564102564
9	321763	1320	2.8179487179487
9	327196	1340	2.0762820512821
9	332584	1360	3.8557692307692
9	337934	1380	5.2280487804878
9	343198	1400	3.6608974358974
9	348509	1420	3.6660256410256
9	353809	1440	2.8951219512195
9	359085	1460	3.6621951219512
9	364426	1480	4.7794871794872
9	369726	1500	4.6641025641026
9	375049	1520	2.2199730094467
9	380329	1540	3.1835357624831
9	385715	1560	2.9
9	391074	1580	3.5871080139373
9	396427	1600	4.6975609756098
9	401816	1620	2.4814102564103
9	407143	1640	2.199358974359
9	412334	1660	3.250641025641
9	417610	1680	4.0762820512821
9	422942	1700	3.3280487804878
9	428273	1720	3.6410256410256
9	433551	1740	2.0198717948718
9	438854	1760	2.3275641025641
9	444156	1780	2.0923076923077
9	449483	1800	2.2743902439024
9	454386	1820	1.990990990991
9	458593	1840	2.1283422459893
9	462475	1860	1.9118279569892
9	465868	1880	3.8746438746439
9	468850	1900	4.0750988142292
9	471331	1920	2.4285714285714
9	473380	1940	2.6176470588235
9	474933	1960	2.3736263736264
9	475951	1980	0.72222222222222
9	476519	2000	1.8095238095238
10	34809	240	238.0151644118
10	40114	260	285.5230003398
10	45467	280	238.30420457293
10	50784	300	238.30577926324
10	56042	320	332.8220378864
10	61393	340	276.08862828866
10	66699	360	229.9482148617
10	71953	380	368.3531219694
10	77176	400	335.1680413091
10	82533	420	375.59793941889
10	87811	440	187.43953358472
10	93229	460	330.5841901102
10	98499	480	323.34242811286
10	103782	500	378.76629544586
10	109036	520	282.18417250981
10	114358	540	186.78408123886
10	119723	560	186.41558929444
10	125051	580	231.51878625413
10	130350	600	241.52778514917
10	135610	620	563.59103382309
10	140989	640	183.19473902581
10	146299	660	190.15307867604
10	151549	680	379.03589473431
10	156942	700	96.139298261368
10	162230	720	417.17455493655
10	167468	740	281.75556818955
10	172870	760	143.88482224637
10	178131	780	229.22216559809
10	183470	800	374.1056912431
10	188698	820	333.95438518218
10	194091	840	284.11668522665
10	199290	860	189.22602055216
10	204590	880	417.32072240868
10	210035	900	234.22307940721
10	215465	920	283.86326102832
10	220814	940	372.06718894956
10	226100	960	386.84650772472
10	231427	980	373.57357327532
10	236723	1000	183.23424585302
10	242032	1020	289.52990130526
10	247332	1040	478.26955763557
10	252707	1060	287.89359590326
10	257916	1080	94.828851352879
10	263231	1100	182.65905774395
10	268550	1120	141.49712502744
10	273913	1140	231.73692355074
10	279380	1160	237.59961692531
10	284691	1180	288.89533336604
10	289961	1200	280.15824474838
10	295273	1220	327.86179064841
10	300552	1240	276.82240608644
10	305768	1260	330.10763774128
10	311099	1280	326.32092253615
10	316408	1300	372.51372649846
10	321763	1320	329.97253696785
10	327196	1340	332.0683755299
10	332584	1360	237.33917946215
10	337934	1380	142.82990450631
10	343198	1400	418.95516057452
10	348509	1420	278.02338057429
10	353809	1440	194.29154740666
10	359085	1460	459.15041895982
10	364426	1480	227.61001955226
10	369726	1500	229.92612649775
10	375049	1520	285.5318833713
10	380329	1540	229.05087509392
10	385715	1560	424.08858439447
10	391074	1580	193.81921847329
10	396427	1600	378.12771364848
10	401816	1620	229.2873035194
10	407143	1640	331.39928980052
10	412334	1660	186.09866021624
10	417610	1680	330.90703601781
10	422942	1700	229.63817009934
10	428273	1720	184.94489069032
10	433551	1740	183.77687911205
10	438854	1760	181.57152945591
10	444156	1780	329.70110062485
10	449483	1800	320.88338863459
10	454386	1820	144.01277530302
10	458593	1840	98.588472831887
10	462475	1860	234.26596848619
10	465868	1880	135.93829457558
10	468850	1900	44.816247193858
10	471331	1920	195.93476536149
10	473380	1940	92.979459938436
10	474933	1960	94.893026799873
10	475951	1980	47.541480542052
10	476519	2000	49.338773734508
11	34809	240	47.603032882361
11	40114	260	47.5871667233
11	45467	280	47.660840914587
11	50784	300	47.661155852648
11	56042	320	47.546005412343
11	61393	340	46.014771381443
11	66699	360	45.989642972339
11	71953	380	46.044140246175
11	77176	400	47.881148758442
11	82533	420	46.949742427362
11	87811	440	46.85988339618
11	93229	460	47.226312872886
11	98499	480	46.191775444695
11	103782	500	47.345786930732
11	109036	520	47.030695418302
11	114358	540	46.696020309714
11	119723	560	46.60389732361
11	125051	580	46.303757250825
11	130350	600	48.305557029833
11	135610	620	46.965919485257
11	140989	640	45.798684756454
11	146299	660	47.538269669009
11	151549	680	47.379486841788
11	156942	700	48.069649130684
11	162230	720	46.352728326283
11	167468	740	46.959261364925
11	172870	760	47.961607415456
11	178131	780	45.844433119617
11	183470	800	46.763211405388
11	188698	820	47.707769311739
11	194091	840	47.352780871108
11	199290	860	47.306505138041
11	204590	880	46.36896915652
11	210035	900	46.844615881442
11	215465	920	47.31054350472
11	220814	940	46.508398618695
11	226100	960	48.35581346559
11	231427	980	46.696696659416
11	236723	1000	45.808561463255
11	242032	1020	48.254983550877
11	247332	1040	47.826955763557
11	252707	1060	47.982265983876
11	257916	1080	47.41442567644
11	263231	1100	45.664764435987
11	268550	1120	47.165708342479
11	273913	1140	46.347384710148
11	279380	1160	47.519923385061
11	284691	1180	48.149222227673
11	289961	1200	46.693040791396
11	295273	1220	46.837398664058
11	300552	1240	46.137067681074
11	305768	1260	47.158233963041
11	311099	1280	46.617274648021
11	316408	1300	46.564215812307
11	321763	1320	47.13893385255
11	327196	1340	47.438339361415
11	332584	1360	47.46783589243
11	337934	1380	47.609968168771
11	343198	1400	46.550573397169
11	348509	1420	46.337230095715
11	353809	1440	48.572886851664
11	359085	1460	45.915041895982
11	364426	1480	45.522003910453
11	369726	1500	45.98522529955
11	375049	1520	47.588647228549
11	380329	1540	45.810175018784
11	385715	1560	47.120953821608
11	391074	1580	48.454804618323
11	396427	1600	47.265964206059
11	401816	1620	45.857460703881
11	407143	1640	47.342755685788
11	412334	1660	46.524665054061
11	417610	1680	47.27243371683
11	422942	1700	45.927634019868
11	428273	1720	46.23622267258
11	433551	1740	45.944219778011
11	438854	1760	45.392882363977
11	444156	1780	47.100157232122
11	449483	1800	45.840484090656
11	454386	1820	48.004258434339
11	458593	1840	49.294236415943
11	462475	1860	46.853193697238
11	465868	1880	45.312764858526
11	468850	1900	44.816247193858
11	471331	1920	48.983691340374
11	473380	1940	46.489729969218
11	474933	1960	47.446513399937
11	475951	1980	47.541480542052
11	476519	2000	49.338773734508
12	34809	240	3.4288698566326
12	40114	260	1.6718912551427
12	45467	280	2.8642027145434
12	50784	300	3.0379435348955
12	56042	320	1.8093342763162
12	61393	340	0.80178392425891
12	66699	360	0.73283848599241
12	71953	380	1.4016640040577
12	77176	400	3.0349902013944
12	82533	420	1.9480179500974
12	87811	440	2.93833228493
12	93229	460	1.9730480172051
12	98499	480	1.5503102836102
12	103782	500	3.08567771635
12	109036	520	2.2390548213057
12	114358	540	0.9846377692012
12	119723	560	1.5449344756142
12	125051	580	1.9135989615768
12	130350	600	2.7108356448672
12	135610	620	1.9520297036118
12	140989	640	1.3788497833517
12	146299	660	1.6065115508131
12	151549	680	1.1340646314402
12	156942	700	3.0143907217583
12	162230	720	1.5632026314046
12	167468	740	1.9048726484865
12	172870	760	2.9064811292406
12	178131	780	0.67072823845872
12	183470	800	1.8025749535707
12	188698	820	4.6216862682713
12	194091	840	1.4699293523903
12	199290	860	2.3144049509703
12	204590	880	2.7632272252011
12	210035	900	2.2592387060932
12	215465	920	2.4187996844168
12	220814	940	1.758828550967
12	226100	960	3.4297696786204
12	231427	980	2.9685513735337
12	236723	1000	3.8487420546948
12	242032	1020	2.8620157433511
12	247332	1040	2.8825089393859
12	252707	1060	2.9183011133107
12	257916	1080	1.6989836885726
12	263231	1100	1.3655811879626
12	268550	1120	0.96436654550629
12	273913	1140	0.84546020476114
12	279380	1160	1.9253357213478
12	284691	1180	0.90218023362241
12	289961	1200	1.1397716389371
12	295273	1220	1.8802154860461
12	300552	1240	3.0650295353273
12	305768	1260	2.2794815500072
12	311099	1280	1.3231906937166
12	316408	1300	1.2995331885947
12	321763	1320	0.82646567267115
12	327196	1340	1.6009496800379
12	332584	1360	1.5336750930904
12	337934	1380	0.53918271743242
12	343198	1400	1.4192286948421
12	348509	1420	3.7931497096907
12	353809	1440	2.5065003092232
12	359085	1460	2.2090467405533
12	364426	1480	1.0990701972355
12	369726	1500	1.1304858061786
12	375049	1520	2.3868801312453
12	380329	1540	0.97778371028214
12	385715	1560	1.6171757005565
12	391074	1580	2.696122401794
12	396427	1600	1.5411124029997
12	401816	1620	1.3222433481643
12	407143	1640	2.3127444021625
12	412334	1660	1.2919346138513
12	417610	1680	1.404919652488
12	422942	1700	1.8329133531047
12	428273	1720	1.8478533275147
12	433551	1740	1.0739002276324
12	438854	1760	0.92833656113665
12	444156	1780	2.9784599206508
12	449483	1800	0.99984459434428
12	454386	1820	3.039169127079
12	458593	1840	4.0475867353379
12	462475	1860	3.3448803702211
12	465868	1880	1.8061249920268
12	468850	1900	nan
12	471331	1920	2.1242196675839
12	473380	1940	0.79488073495939
12	474933	1960	0.28566745532531
12	475951	1980	nan
12	476519	2000	nan
13	34809	240	11.757148493724
13	40114	260	2.7952203690225
13	45467	280	8.2036571899975
13	50784	300	9.2291009212136
13	56042	320	3.2736905234525
13	61393	340	0.64285746120002
13	66699	360	0.53705224655165
13	71953	380	1.9646619802711
13	77176	400	9.21116552256
13	82533	420	3.7947739339016
13	87811	440	8.633796616662
13	93229	460	3.8929184781971
13	98499	480	2.4034619754675