version 2
run statisticRVV-4-20150327-01:30:42-10192
attr c 14
attr configname statisticRVV
attr datetime 20150327-01:30:42
attr experiment statisticRVV
attr inifile omnetpp.ini
attr iterationvars "$sc=\"erlangen-low.launchd.xml\", $p=1/15, $c=14"
attr iterationvars2 "$sc=\"erlangen-low.launchd.xml\", $p=1/15, $c=14, $repetition=4"
attr measurement "$sc=\"erlangen-low.launchd.xml\", $p=1/15, $c=14"
attr network RSUExampleScenario
attr p 1/15
attr processid 10192
attr repetition 4
attr replication #4
attr resultdir results
attr runnumber 4
attr sc "\"erlangen-low.launchd.xml\""
attr seedset 4

vector 0  RSUExampleScenario.rsu[0].appl  Number_CH  ETV
vector 1  RSUExampleScenario.rsu[0].appl  Number_ON  ETV
vector 2  RSUExampleScenario.rsu[0].appl  Number_FN  ETV
vector 3  RSUExampleScenario.rsu[0].appl  Number_CH_Losts  ETV
vector 4  RSUExampleScenario.rsu[0].appl  Number_CH_Losts  ETV
vector 5  RSUExampleScenario.rsu[0].appl  Mean_Cluster_Size  ETV
vector 6  RSUExampleScenario.rsu[0].appl  StdDev_Cluster_Size  ETV
vector 7  RSUExampleScenario.rsu[0].appl  Variance_Cluster_Size  ETV
vector 8  RSUExampleScenario.rsu[0].appl  Mean_Neighbors  ETV
vector 9  RSUExampleScenario.rsu[0].appl  StdDev_Neighbors  ETV
vector 10  RSUExampleScenario.rsu[0].appl  Variance_Neighbors  ETV
vector 11  RSUExampleScenario.rsu[0].appl  Total_CH_Utility  ETV
vector 12  RSUExampleScenario.rsu[0].appl  Mean_CH_Utility  ETV
vector 13  RSUExampleScenario.rsu[0].appl  StdDev_CH_Utility  ETV
vector 14  RSUExampleScenario.rsu[0].appl  Variance_CH_Utility  ETV
vector 15  RSUExampleScenario.rsu[0].appl  Total_exp_CH_Utility  ETV
vector 16  RSUExampleScenario.rsu[0].appl  Mean_exp_CH_Utility  ETV
vector 17  RSUExampleScenario.rsu[0].appl  StdDev_exp_CH_Utility  ETV
vector 18  RSUExampleScenario.rsu[0].appl  Variance_exp_CH_Utility  ETV
vector 19  RSUExampleScenario.rsu[0].appl  Total_ON_Utility  ETV
vector 20  RSUExampleScenario.rsu[0].appl  Mean_ON_Utility  ETV
vector 21  RSUExampleScenario.rsu[0].appl  StdDev_ON_Utility  ETV
vector 22  RSUExampleScenario.rsu[0].appl  Variance_ON_Utility  ETV
vector 23  RSUExampleScenario.rsu[0].appl  Total_exp_ON_Utility  ETV
vector 24  RSUExampleScenario.rsu[0].appl  Mean_exp_ON_Utility  ETV
vector 25  RSUExampleScenario.rsu[0].appl  StdDev_exp_ON_Utility  ETV
vector 26  RSUExampleScenario.rsu[0].appl  Variance_exp_ON_Utility  ETV
0	34597	240	3
0	39979	260	1
0	45343	280	0
0	50569	300	2
0	55901	320	1
0	61260	340	3
0	66564	360	5
0	71830	380	2
0	77161	400	4
0	82470	420	1
0	87744	440	4
0	93139	460	3
0	98484	480	3
0	103698	500	2
0	108876	520	2
0	114139	540	3
0	119574	560	1
0	124852	580	0
0	130160	600	5
0	135524	620	5
0	140848	640	2
0	146116	660	1
0	151447	680	1
0	156626	700	2
0	161878	720	3
0	167249	740	3
0	172623	760	6
0	177947	780	2
0	183346	800	5
0	188738	820	6
0	194081	840	2
0	199416	860	3
0	204812	880	4
0	210156	900	2
0	215517	920	4
0	220886	940	2
0	226341	960	2
0	231635	980	3
0	236944	1000	2
0	242279	1020	1
0	247504	1040	2
0	252835	1060	3
0	258086	1080	1
0	263281	1100	4
0	268621	1120	3
0	274037	1140	1
0	279402	1160	2
0	284670	1180	2
0	290001	1200	4
0	295318	1220	4
0	300602	1240	2
0	305951	1260	2
0	311219	1280	3
0	316574	1300	4
0	322054	1320	3
0	327395	1340	2
0	332652	1360	3
0	337754	1380	0
0	343187	1400	0
0	348498	1420	2
0	353844	1440	4
0	359128	1460	1
0	364492	1480	3
0	369776	1500	2
0	375050	1520	4
0	380450	1540	2
0	385955	1560	1
0	391186	1580	0
0	396547	1600	5
0	401793	1620	3
0	407086	1640	3
0	412367	1660	0
0	417670	1680	4
0	423009	1700	2
0	428236	1720	5
0	433635	1740	1
0	438836	1760	2
0	444122	1780	2
0	449503	1800	3
0	454375	1820	1
0	458714	1840	0
0	462432	1860	0
0	465716	1880	1
0	468628	1900	2
0	471139	1920	0
0	473227	1940	3
0	474750	1960	3
0	475888	1980	0
0	476464	2000	1
1	34597	240	15
1	39979	260	2
1	45343	280	0
1	50569	300	12
1	55901	320	2
1	61260	340	17
1	66564	360	17
1	71830	380	5
1	77161	400	17
1	82470	420	1
1	87744	440	15
1	93139	460	12
1	98484	480	6
1	103698	500	4
1	108876	520	5
1	114139	540	11
1	119574	560	2
1	124852	580	0
1	130160	600	24
1	135524	620	6
1	140848	640	8
1	146116	660	4
1	151447	680	4
1	156626	700	12
1	161878	720	11
1	167249	740	10
1	172623	760	18
1	177947	780	7
1	183346	800	15
1	188738	820	19
1	194081	840	9
1	199416	860	5
1	204812	880	13
1	210156	900	6
1	215517	920	11
1	220886	940	8
1	226341	960	6
1	231635	980	11
1	236944	1000	12
1	242279	1020	4
1	247504	1040	9
1	252835	1060	14
1	258086	1080	3
1	263281	1100	13
1	268621	1120	9
1	274037	1140	2
1	279402	1160	12
1	284670	1180	6
1	290001	1200	18
1	295318	1220	13
1	300602	1240	4
1	305951	1260	9
1	311219	1280	11
1	316574	1300	11
1	322054	1320	9
1	327395	1340	10
1	332652	1360	13
1	337754	1380	0
1	343187	1400	0
1	348498	1420	4
1	353844	1440	21
1	359128	1460	2
1	364492	1480	5
1	369776	1500	13
1	375050	1520	11
1	380450	1540	9
1	385955	1560	2
1	391186	1580	0
1	396547	1600	16
1	401793	1620	11
1	407086	1640	16
1	412367	1660	0
1	417670	1680	14
1	423009	1700	3
1	428236	1720	16
1	433635	1740	3
1	438836	1760	13
1	444122	1780	13
1	449503	1800	15
1	454375	1820	3
1	458714	1840	0
1	462432	1860	0
1	465716	1880	2
1	468628	1900	8
1	471139	1920	0
1	473227	1940	9
1	474750	1960	9
1	475888	1980	0
1	476464	2000	4
2	34597	240	22
2	39979	260	37
2	45343	280	41
2	50569	300	26
2	55901	320	37
2	61260	340	21
2	66564	360	18
2	71830	380	33
2	77161	400	21
2	82470	420	37
2	87744	440	21
2	93139	460	26
2	98484	480	32
2	103698	500	34
2	108876	520	33
2	114139	540	26
2	119574	560	37
2	124852	580	40
2	130160	600	11
2	135524	620	30
2	140848	640	30
2	146116	660	35
2	151447	680	34
2	156626	700	26
2	161878	720	26
2	167249	740	27
2	172623	760	18
2	177947	780	31
2	183346	800	20
2	188738	820	17
2	194081	840	30
2	199416	860	33
2	204812	880	23
2	210156	900	32
2	215517	920	25
2	220886	940	31
2	226341	960	33
2	231635	980	25
2	236944	1000	27
2	242279	1020	36
2	247504	1040	28
2	252835	1060	24
2	258086	1080	36
2	263281	1100	24
2	268621	1120	30
2	274037	1140	38
2	279402	1160	27
2	284670	1180	32
2	290001	1200	19
2	295318	1220	23
2	300602	1240	34
2	305951	1260	30
2	311219	1280	26
2	316574	1300	25
2	322054	1320	29
2	327395	1340	29
2	332652	1360	24
2	337754	1380	39
2	343187	1400	40
2	348498	1420	35
2	353844	1440	16
2	359128	1460	37
2	364492	1480	34
2	369776	1500	25
2	375050	1520	25
2	380450	1540	30
2	385955	1560	38
2	391186	1580	39
2	396547	1600	19
2	401793	1620	25
2	407086	1640	22
2	412367	1660	40
2	417670	1680	23
2	423009	1700	36
2	428236	1720	20
2	433635	1740	37
2	438836	1760	24
2	444122	1780	25
2	449503	1800	23
2	454375	1820	33
2	458714	1840	34
2	462432	1860	30
2	465716	1880	24
2	468628	1900	14
2	471139	1920	21
2	473227	1940	6
2	474750	1960	2
2	475888	1980	11
2	476464	2000	2
3	34597	240	0
3	39979	260	0
3	45343	280	0
3	50569	300	0
3	55901	320	0
3	61260	340	0
3	66564	360	1
3	71830	380	0
3	77161	400	2
3	82470	420	0
3	87744	440	0
3	93139	460	1
3	98484	480	1
3	103698	500	0
3	108876	520	0
3	114139	540	0
3	119574	560	0
3	124852	580	0
3	130160	600	1
3	135524	620	1
3	140848	640	0
3	146116	660	0
3	151447	680	0
3	156626	700	0
3	161878	720	0
3	167249	740	0
3	172623	760	0
3	177947	780	0
3	183346	800	0
3	188738	820	2
3	194081	840	1
3	199416	860	0
3	204812	880	0
3	210156	900	0
3	215517	920	0
3	220886	940	0
3	226341	960	0
3	231635	980	0
3	236944	1000	0
3	242279	1020	0
3	247504	1040	0
3	252835	1060	1
3	258086	1080	0
3	263281	1100	0
3	268621	1120	0
3	274037	1140	0
3	279402	1160	0
3	284670	1180	0
3	290001	1200	0
3	295318	1220	0
3	300602	1240	1
3	305951	1260	0
3	311219	1280	0
3	316574	1300	0
3	322054	1320	0
3	327395	1340	0
3	332652	1360	0
3	337754	1380	0
3	343187	1400	0
3	348498	1420	0
3	353844	1440	0
3	359128	1460	0
3	364492	1480	0
3	369776	1500	0
3	375050	1520	0
3	380450	1540	0
3	385955	1560	0
3	391186	1580	0
3	396547	1600	0
3	401793	1620	0
3	407086	1640	0
3	412367	1660	0
3	417670	1680	0
3	423009	1700	0
3	428236	1720	0
3	433635	1740	0
3	438836	1760	0
3	444122	1780	0
3	449503	1800	0
3	454375	1820	0
3	458714	1840	0
3	462432	1860	0
3	465716	1880	0
3	468628	1900	0
3	471139	1920	0
3	473227	1940	0
3	474750	1960	0
3	475888	1980	0
3	476464	2000	0
4	34597	240	22
4	39979	260	37
4	45343	280	41
4	50569	300	26
4	55901	320	36
4	61260	340	21
4	66564	360	17
4	71830	380	33
4	77161	400	19
4	82470	420	37
4	87744	440	20
4	93139	460	25
4	98484	480	31
4	103698	500	34
4	108876	520	33
4	114139	540	26
4	119574	560	36
4	124852	580	40
4	130160	600	10
4	135524	620	29
4	140848	640	29
4	146116	660	35
4	151447	680	34
4	156626	700	25
4	161878	720	26
4	167249	740	27
4	172623	760	17
4	177947	780	31
4	183346	800	19
4	188738	820	15
4	194081	840	29
4	199416	860	33
4	204812	880	23
4	210156	900	32
4	215517	920	25
4	220886	940	31
4	226341	960	33
4	231635	980	25
4	236944	1000	27
4	242279	1020	36
4	247504	1040	28
4	252835	1060	22
4	258086	1080	36
4	263281	1100	24
4	268621	1120	30
4	274037	1140	37
4	279402	1160	27
4	284670	1180	32
4	290001	1200	19
4	295318	1220	23
4	300602	1240	33
4	305951	1260	30
4	311219	1280	26
4	316574	1300	25
4	322054	1320	28
4	327395	1340	28
4	332652	1360	24
4	337754	1380	39
4	343187	1400	40
4	348498	1420	35
4	353844	1440	16
4	359128	1460	37
4	364492	1480	34
4	369776	1500	25
4	375050	1520	24
4	380450	1540	30
4	385955	1560	37
4	391186	1580	39
4	396547	1600	19
4	401793	1620	25
4	407086	1640	22
4	412367	1660	40
4	417670	1680	23
4	423009	1700	36
4	428236	1720	20
4	433635	1740	37
4	438836	1760	24
4	444122	1780	25
4	449503	1800	23
4	454375	1820	33
4	458714	1840	34
4	462432	1860	30
4	465716	1880	24
4	468628	1900	14
4	471139	1920	21
4	473227	1940	6
4	474750	1960	2
4	475888	1980	11
4	476464	2000	2
5	34597	240	5
5	39979	260	2
5	45343	280	nan
5	50569	300	6
5	55901	320	2
5	61260	340	5.6666666666667
5	66564	360	3.4
5	71830	380	2.5
5	77161	400	4.25
5	82470	420	1
5	87744	440	3.75
5	93139	460	4
5	98484	480	2
5	103698	500	2
5	108876	520	2.5
5	114139	540	3.6666666666667
5	119574	560	2
5	124852	580	nan
5	130160	600	4.8
5	135524	620	1.2
5	140848	640	4
5	146116	660	4
5	151447	680	4
5	156626	700	6
5	161878	720	3.6666666666667
5	167249	740	3.3333333333333
5	172623	760	3
5	177947	780	3.5
5	183346	800	3
5	188738	820	3.1666666666667
5	194081	840	4.5
5	199416	860	1.6666666666667
5	204812	880	3.25
5	210156	900	3
5	215517	920	2.75
5	220886	940	4
5	226341	960	3
5	231635	980	3.6666666666667
5	236944	1000	6
5	242279	1020	4
5	247504	1040	4.5
5	252835	1060	4.6666666666667
5	258086	1080	3
5	263281	1100	3.25
5	268621	1120	3
5	274037	1140	2
5	279402	1160	6
5	284670	1180	3
5	290001	1200	4.5
5	295318	1220	3.25
5	300602	1240	2
5	305951	1260	4.5
5	311219	1280	3.6666666666667
5	316574	1300	2.75
5	322054	1320	3
5	327395	1340	5
5	332652	1360	4.3333333333333
5	337754	1380	nan
5	343187	1400	nan
5	348498	1420	2
5	353844	1440	5.25
5	359128	1460	2
5	364492	1480	1.6666666666667
5	369776	1500	6.5
5	375050	1520	2.75
5	380450	1540	4.5
5	385955	1560	2
5	391186	1580	nan
5	396547	1600	3.2
5	401793	1620	3.6666666666667
5	407086	1640	5.3333333333333
5	412367	1660	nan
5	417670	1680	3.5
5	423009	1700	1.5
5	428236	1720	3.2
5	433635	1740	3
5	438836	1760	6.5
5	444122	1780	6.5
5	449503	1800	5
5	454375	1820	3
5	458714	1840	nan
5	462432	1860	nan
5	465716	1880	2
5	468628	1900	4
5	471139	1920	nan
5	473227	1940	3
5	474750	1960	3
5	475888	1980	nan
5	476464	2000	4
6	34597	240	3.605551275464
6	39979	260	nan
6	45343	280	nan
6	50569	300	2.8284271247462
6	55901	320	nan
6	61260	340	1.5275252316519
6	66564	360	1.1401754250991
6	71830	380	0.70710678118655
6	77161	400	3.2015621187164
6	82470	420	nan
6	87744	440	2.2173557826083
6	93139	460	0
6	98484	480	1
6	103698	500	0
6	108876	520	0.70710678118655
6	114139	540	0.57735026918963
6	119574	560	nan
6	124852	580	nan
6	130160	600	2.3874672772627
6	135524	620	0.44721359549996
6	140848	640	1.4142135623731
6	146116	660	nan
6	151447	680	nan
6	156626	700	2.8284271247462
6	161878	720	1.1547005383793
6	167249	740	1.1547005383793
6	172623	760	1.2649110640674
6	177947	780	0.70710678118655
6	183346	800	2.3452078799117
6	188738	820	1.16904519445
6	194081	840	3.5355339059327
6	199416	860	0.57735026918963
6	204812	880	2.0615528128088
6	210156	900	1.4142135623731
6	215517	920	1.2583057392118
6	220886	940	4.2426406871193
6	226341	960	0
6	231635	980	2.0816659994661
6	236944	1000	1.4142135623731
6	242279	1020	nan
6	247504	1040	2.1213203435596
6	252835	1060	2.0816659994661
6	258086	1080	nan
6	263281	1100	3.2015621187164
6	268621	1120	1.7320508075689
6	274037	1140	nan
6	279402	1160	4.2426406871193
6	284670	1180	0
6	290001	1200	1.9148542155127
6	295318	1220	1.2583057392118
6	300602	1240	1.4142135623731
6	305951	1260	3.5355339059327
6	311219	1280	1.5275252316519
6	316574	1300	1.5
6	322054	1320	1.7320508075689
6	327395	1340	4.2426406871193
6	332652	1360	1.1547005383793
6	337754	1380	nan
6	343187	1400	nan
6	348498	1420	0
6	353844	1440	4.2720018726588
6	359128	1460	nan
6	364492	1480	1.1547005383793
6	369776	1500	0.70710678118655
6	375050	1520	1.2583057392118
6	380450	1540	0.70710678118655
6	385955	1560	nan
6	391186	1580	nan
6	396547	1600	1.7888543819998
6	401793	1620	2.0816659994661
6	407086	1640	3.0550504633039
6	412367	1660	nan
6	417670	1680	1.7320508075689
6	423009	1700	0.70710678118655
6	428236	1720	1.4832396974191
6	433635	1740	nan
6	438836	1760	3.5355339059327
6	444122	1780	2.1213203435596
6	449503	1800	3.605551275464
6	454375	1820	nan
6	458714	1840	nan
6	462432	1860	nan
6	465716	1880	nan
6	468628	1900	0
6	471139	1920	nan
6	473227	1940	2.6457513110646
6	474750	1960	1.7320508075689
6	475888	1980	nan
6	476464	2000	nan
7	34597	240	13
7	39979	260	nan
7	45343	280	nan
7	50569	300	8
7	55901	320	nan
7	61260	340	2.3333333333333
7	66564	360	1.3
7	71830	380	0.5
7	77161	400	10.25
7	82470	420	nan
7	87744	440	4.9166666666667
7	93139	460	0
7	98484	480	1
7	103698	500	0
7	108876	520	0.5
7	114139	540	0.33333333333333
7	119574	560	nan
7	124852	580	nan
7	130160	600	5.7
7	135524	620	0.2
7	140848	640	2
7	146116	660	nan
7	151447	680	nan
7	156626	700	8
7	161878	720	1.3333333333333
7	167249	740	1.3333333333333
7	172623	760	1.6
7	177947	780	0.5
7	183346	800	5.5
7	188738	820	1.3666666666667
7	194081	840	12.5
7	199416	860	0.33333333333333
7	204812	880	4.25
7	210156	900	2
7	215517	920	1.5833333333333
7	220886	940	18
7	226341	960	0
7	231635	980	4.3333333333333
7	236944	1000	2
7	242279	1020	nan
7	247504	1040	4.5
7	252835	1060	4.3333333333333
7	258086	1080	nan
7	263281	1100	10.25
7	268621	1120	3
7	274037	1140	nan
7	279402	1160	18
7	284670	1180	0
7	290001	1200	3.6666666666667
7	295318	1220	1.5833333333333
7	300602	1240	2
7	305951	1260	12.5
7	311219	1280	2.3333333333333
7	316574	1300	2.25
7	322054	1320	3
7	327395	1340	18
7	332652	1360	1.3333333333333
7	337754	1380	nan
7	343187	1400	nan
7	348498	1420	0
7	353844	1440	18.25
7	359128	1460	nan
7	364492	1480	1.3333333333333
7	369776	1500	0.5
7	375050	1520	1.5833333333333
7	380450	1540	0.5
7	385955	1560	nan
7	391186	1580	nan
7	396547	1600	3.2
7	401793	1620	4.3333333333333
7	407086	1640	9.3333333333333
7	412367	1660	nan
7	417670	1680	3
7	423009	1700	0.5
7	428236	1720	2.2
7	433635	1740	nan
7	438836	1760	12.5
7	444122	1780	4.5
7	449503	1800	13
7	454375	1820	nan
7	458714	1840	nan
7	462432	1860	nan
7	465716	1880	nan
7	468628	1900	0
7	471139	1920	nan
7	473227	1940	7
7	474750	1960	3
7	475888	1980	nan
7	476464	2000	nan
8	34597	240	8.75
8	39979	260	9.075
8	45343	280	8.6829268292683
8	50569	300	8.725
8	55901	320	9.2820512820513
8	61260	340	8.8292682926829
8	66564	360	8.95
8	71830	380	8.925
8	77161	400	8.7380952380952
8	82470	420	9.1282051282051
8	87744	440	9.0512820512821
8	93139	460	8.6585365853659
8	98484	480	8.9756097560976
8	103698	500	8.925
8	108876	520	8.85
8	114139	540	9.05
8	119574	560	9.4615384615385
8	124852	580	9.125
8	130160	600	8.9
8	135524	620	8.825
8	140848	640	9.5128205128205
8	146116	660	8.95
8	151447	680	9.0512820512821
8	156626	700	9.025641025641
8	161878	720	9.05
8	167249	740	8.875
8	172623	760	9.0487804878049
8	177947	780	8.85
8	183346	800	9.4871794871795
8	188738	820	8.7857142857143
8	194081	840	9.0243902439024
8	199416	860	8.8048780487805
8	204812	880	9.05
8	210156	900	9.075
8	215517	920	8.975
8	220886	940	8.9024390243902
8	226341	960	9.1219512195122
8	231635	980	9.1538461538462
8	236944	1000	9.1707317073171
8	242279	1020	8.9512195121951
8	247504	1040	9.1794871794872
8	252835	1060	9.075
8	258086	1080	9.05
8	263281	1100	8.780487804878
8	268621	1120	8.8333333333333
8	274037	1140	9.5
8	279402	1160	9.0975609756098
8	284670	1180	8.775
8	290001	1200	8.780487804878
8	295318	1220	9
8	300602	1240	9.05
8	305951	1260	8.8536585365854
8	311219	1280	8.975
8	316574	1300	9.05
8	322054	1320	9.3
8	327395	1340	9.35
8	332652	1360	8.925
8	337754	1380	8.8974358974359
8	343187	1400	8.975
8	348498	1420	8.9024390243902
8	353844	1440	8.8780487804878
8	359128	1460	8.75
8	364492	1480	8.8095238095238
8	369776	1500	8.85
8	375050	1520	9.1025641025641
8	380450	1540	9.1219512195122
8	385955	1560	9.325
8	391186	1580	8.9230769230769
8	396547	1600	8.875
8	401793	1620	9.1538461538462
8	407086	1640	8.8536585365854
8	412367	1660	8.975
8	417670	1680	8.7317073170732
8	423009	1700	8.8780487804878
8	428236	1720	8.9756097560976
8	433635	1740	8.780487804878
8	438836	1760	8.8205128205128
8	444122	1780	9.125
8	449503	1800	8.8780487804878
8	454375	1820	9.0540540540541
8	458714	1840	8.3529411764706
8	462432	1860	8.3333333333333
8	465716	1880	8.0740740740741
8	468628	1900	7.8333333333333
8	471139	1920	8.1904761904762
8	473227	1940	7.7222222222222
8	474750	1960	7.3571428571429
8	475888	1980	6.1818181818182
8	476464	2000	4.8571428571429
9	34597	240	2.1453587351686
9	39979	260	1.7742820866697
9	45343	280	1.5401140280876
9	50569	300	1.724447142918
9	55901	320	1.5885895423749
9	61260	340	2.3759465379548
9	66564	360	1.9473848341578
9	71830	380	1.9133471812239
9	77161	400	2.0489083805002
9	82470	420	1.3988620785159
9	87744	440	1.5208847485439
9	93139	460	2.1402074209941
9	98484	480	1.7816818582178
9	103698	500	1.4568582283242
9	108876	520	1.6416064677236
9	114139	540	1.5350603429215
9	119574	560	1.1886780327688
9	124852	580	1.6359346109433
9	130160	600	2.1098061643862
9	135524	620	1.852060529553
9	140848	640	1.3930616579054
9	146116	660	2.229752199639
9	151447	680	1.4680584734647
9	156626	700	1.36665514626
9	161878	720	1.1535897150934
9	167249	740	1.8562092609705
9	172623	760	1.7881725240059
9	177947	780	1.8885620632287
9	183346	800	1.6681504865821
9	188738	820	1.7184183636338
9	194081	840	2.0060882941442
9	199416	860	1.9002567220658
9	204812	880	1.6633299933166
9	210156	900	2.0429679265025
9	215517	920	1.4048907248316
9	220886	940	2.0100357963079
9	226341	960	1.951859651092
9	231635	980	1.5310550462527
9	236944	1000	1.9222699995629
9	242279	1020	2.0487950057558
9	247504	1040	1.7301018356367
9	252835	1060	1.5087352489029
9	258086	1080	1.3950461806528
9	263281	1100	1.6809550131094
9	268621	1120	2.1743142083017
9	274037	1140	1.320450583547
9	279402	1160	1.9596540262095
9	284670	1180	1.8043750249794
9	290001	1200	1.6357291206363
9	295318	1220	2.0380986614603
9	300602	1240	1.6164221332376
9	305951	1260	1.5899838931536
9	311219	1280	1.4586171884919
9	316574	1300	1.893985081034
9	322054	1320	1.5224811059415
9	327395	1340	1.7029386365926
9	332652	1360	1.3660254906207
9	337754	1380	1.4103913565665
9	343187	1400	1.6249260338196
9	348498	1420	1.4799472633979
9	353844	1440	1.9646261979219
9	359128	1460	1.5483655567843
9	364492	1480	1.9906867945645
9	369776	1500	1.5778921350154
9	375050	1520	1.5693591014181
9	380450	1540	2.0999419271877
9	385955	1560	1.5256356388614
9	391186	1580	1.5455303192145
9	396547	1600	1.4708710135364
9	401793	1620	1.3482632403141
9	407086	1640	1.2562041157741
9	412367	1660	1.4586171884919
9	417670	1680	1.8711545933447
9	423009	1700	1.5683609589508
9	428236	1720	1.7956587214453
9	433635	1740	1.6048706353154
9	438836	1760	1.9176712147783
9	444122	1780	1.6974717247749
9	449503	1800	1.9773103189841
9	454375	1820	1.3111900011895
9	458714	1840	1.7035142454097
9	462432	1860	1.4932799662057
9	465716	1880	1.8795647189612
9	468628	1900	1.8804871400937
9	471139	1920	1.6917165134575
9	473227	1940	1.7423971167384
9	474750	1960	1.7805419597217
9	475888	1980	1.0787197799412
9	476464	2000	1.0690449676497
10	34597	240	4.6025641025641
10	39979	260	3.1480769230769
10	45343	280	2.3719512195122
10	50569	300	2.9737179487179
10	55901	320	2.523616734143
10	61260	340	5.6451219512195
10	66564	360	3.7923076923077
10	71830	380	3.6608974358974
10	77161	400	4.1980255516841
10	82470	420	1.9568151147099
10	87744	440	2.3130904183536
10	93139	460	4.580487804878
10	98484	480	3.1743902439024
10	103698	500	2.1224358974359
10	108876	520	2.6948717948718
10	114139	540	2.3564102564103
10	119574	560	1.412955465587
10	124852	580	2.6762820512821
10	130160	600	4.4512820512821
10	135524	620	3.4301282051282
10	140848	640	1.940620782726
10	146116	660	4.9717948717949
10	151447	680	2.1551956815115
10	156626	700	1.8677462887989
10	161878	720	1.3307692307692
10	167249	740	3.4455128205128
10	172623	760	3.1975609756098
10	177947	780	3.5666666666667
10	183346	800	2.7827260458839
10	188738	820	2.9529616724739
10	194081	840	4.0243902439024
10	199416	860	3.6109756097561
10	204812	880	2.7666666666667
10	210156	900	4.1737179487179
10	215517	920	1.9737179487179
10	220886	940	4.040243902439
10	226341	960	3.809756097561
10	231635	980	2.3441295546559
10	236944	1000	3.6951219512195
10	242279	1020	4.1975609756098
10	247504	1040	2.9932523616734
10	252835	1060	2.2762820512821
10	258086	1080	1.9461538461538
10	263281	1100	2.8256097560976
10	268621	1120	4.7276422764228
10	274037	1140	1.7435897435897
10	279402	1160	3.840243902439
10	284670	1180	3.2557692307692
10	290001	1200	2.6756097560976
10	295318	1220	4.1538461538462
10	300602	1240	2.6128205128205
10	305951	1260	2.5280487804878
10	311219	1280	2.1275641025641
10	316574	1300	3.5871794871795
10	322054	1320	2.3179487179487
10	327395	1340	2.9
10	332652	1360	1.8660256410256
10	337754	1380	1.9892037786775
10	343187	1400	2.6403846153846
10	348498	1420	2.190243902439
10	353844	1440	3.859756097561
10	359128	1460	2.3974358974359
10	364492	1480	3.9628339140534
10	369776	1500	2.4897435897436
10	375050	1520	2.4628879892038
10	380450	1540	4.409756097561
10	385955	1560	2.3275641025641
10	391186	1580	2.3886639676113
10	396547	1600	2.1634615384615
10	401793	1620	1.8178137651822
10	407086	1640	1.5780487804878
10	412367	1660	2.1275641025641
10	417670	1680	3.5012195121951
10	423009	1700	2.459756097561
10	428236	1720	3.2243902439024
10	433635	1740	2.5756097560976
10	438836	1760	3.6774628879892
10	444122	1780	2.8814102564103
10	449503	1800	3.909756097561
10	454375	1820	1.7192192192192
10	458714	1840	2.9019607843137
10	462432	1860	2.2298850574713
10	465716	1880	3.5327635327635
10	468628	1900	3.536231884058
10	471139	1920	2.8619047619048
10	473227	1940	3.0359477124183
10	474750	1960	3.1703296703297
10	475888	1980	1.1636363636364
10	476464	2000	1.1428571428571
11	34597	240	136.83439620155
11	39979	260	46.515513142064
11	45343	280	0
11	50569	300	90.666330000675
11	55901	320	47.269038749467
11	61260	340	134.29302391814
11	66564	360	230.70905177694
11	71830	380	92.530517232689
11	77161	400	183.95083884086
11	82470	420	47.503079383884
11	87744	440	182.72613974168
11	93139	460	137.53026995423
11	98484	480	141.92144578956
11	103698	500	90.881367591682
11	108876	520	94.193022466237
11	114139	540	137.82605659862
11	119574	560	49.328471133088
11	124852	580	0
11	130160	600	228.36911012191
11	135524	620	235.5057197501
11	140848	640	90.907025252844
11	146116	660	44.959187795745
11	151447	680	44.336617311505
11	156626	700	89.121412412992
11	161878	720	137.84350992759
11	167249	740	136.99269450978
11	172623	760	285.67089176293
11	177947	780	91.275857986448
11	183346	800	226.34152619294
11	188738	820	276.28561600769
11	194081	840	91.927441205881
11	199416	860	139.89308196554
11	204812	880	182.57773268561
11	210156	900	92.235284128756
11	215517	920	182.93589864873
11	220886	940	90.091512332108
11	226341	960	90.311121048532
11	231635	980	133.48227655049
11	236944	1000	91.001636537654
11	242279	1020	45.106815124413
11	247504	1040	92.433331444877
11	252835	1060	135.90117975644
11	258086	1080	46.199941305606
11	263281	1100	187.84283809914
11	268621	1120	140.40819332786
11	274037	1140	49.049964073009
11	279402	1160	89.190253419809
11	284670	1180	92.308048134125
11	290001	1200	181.43258359313
11	295318	1220	180.32583734232
11	300602	1240	92.252297164944
11	305951	1260	91.127274795919
11	311219	1280	135.29320770524
11	316574	1300	181.03309099826
11	322054	1320	140.31897060237
11	327395	1340	89.850387338495
11	332652	1360	135.40705783583
11	337754	1380	0
11	343187	1400	0
11	348498	1420	95.577936179129
11	353844	1440	183.16722985592
11	359128	1460	46.463829981999
11	364492	1480	144.75453267238
11	369776	1500	90.439153494733
11	375050	1520	188.64848901497
11	380450	1540	92.801885820335
11	385955	1560	48.364301099195
11	391186	1580	0
11	396547	1600	231.61742616776
11	401793	1620	136.22573656464
11	407086	1640	135.64386725083
11	412367	1660	0
11	417670	1680	179.16652828898
11	423009	1700	92.185165432825
11	428236	1720	224.75145758399
11	433635	1740	46.10888736593
11	438836	1760	90.079532665141
11	444122	1780	88.911642316573
11	449503	1800	143.22118289025
11	454375	1820	45.919409252627
11	458714	1840	0
11	462432	1860	0
11	465716	1880	47.337808678322
11	468628	1900	91.4271778849
11	471139	1920	0
11	473227	1940	139.51350073263
11	474750	1960	135.17998306581
11	475888	1980	0
11	476464	2000	46.728901199085
12	34597	240	45.611465400518
12	39979	260	46.515513142064
12	45343	280	nan
12	50569	300	45.333165000337
12	55901	320	47.269038749467
12	61260	340	44.764341306048
12	66564	360	46.141810355388
12	71830	380	46.265258616345
12	77161	400	45.987709710214
12	82470	420	47.503079383884
12	87744	440	45.68153493542
12	93139	460	45.843423318075
12	98484	480	47.307148596518
12	103698	500	45.440683795841
12	108876	520	47.096511233119
12	114139	540	45.942018866206
12	119574	560	49.328471133088
12	124852	580	nan
12	130160	600	45.673822024383
12	135524	620	47.101143950021
12	140848	640	45.453512626422
12	146116	660	44.959187795745
12	151447	680	44.336617311505
12	156626	700	44.560706206496
12	161878	720	45.947836642529
12	167249	740	45.66423150326
12	172623	760	47.611815293821
12	177947	780	45.637928993224
12	183346	800	45.268305238588
12	188738	820	46.047602667948
12	194081	840	45.96372060294
12	199416	860	46.631027321848
12	204812	880	45.644433171404
12	210156	900	46.117642064378
12	215517	920	45.733974662182
12	220886	940	45.045756166054
12	226341	960	45.155560524266
12	231635	980	44.494092183498
12	236944	1000	45.500818268827
12	242279	1020	45.106815124413
12	247504	1040	46.216665722439
12	252835	1060	45.300393252146
12	258086	1080	46.199941305606
12	263281	1100	46.960709524784
12	268621	1120	46.802731109288
12	274037	1140	49.049964073009
12	279402	1160	44.595126709905
12	284670	1180	46.154024067062
12	290001	1200	45.358145898282
12	295318	1220	45.08145933558
12	300602	1240	46.126148582472
12	305951	1260	45.563637397959
12	311219	1280	45.097735901747
12	316574	1300	45.258272749565
12	322054	1320	46.772990200789
12	327395	1340	44.925193669248
12	332652	1360	45.135685945277
12	337754	1380	nan
12	343187	1400	nan
12	348498	1420	47.788968089565
12	353844	1440	45.791807463981
12	359128	1460	46.463829981999
12	364492	1480	48.251510890794
12	369776	1500	45.219576747367
12	375050	1520	47.162122253743
12	380450	1540	46.400942910167
12	385955	1560	48.364301099195
12	391186	1580	nan
12	396547	1600	46.323485233553
12	401793	1620	45.408578854879
12	407086	1640	45.214622416943
12	412367	1660	nan
12	417670	1680	44.791632072246
12	423009	1700	46.092582716412
12	428236	1720	44.950291516798
12	433635	1740	46.10888736593
12	438836	1760	45.03976633257
12	444122	1780	44.455821158287
12	449503	1800	47.740394296751
12	454375	1820	45.919409252627
12	458714	1840	nan
12	462432	1860	nan
12	465716	1880	47.337808678322
12	468628	1900	45.71358894245
12	471139	1920	nan
12	473227	1940	46.504500244209
12	474750	1960	45.05999435527
12	475888	1980	nan
12	476464	2000	46.728901199085
13	34597	240	1.438265797893
13	39979	260	nan
13	45343	280	nan
13	50569	300	0.29458678204369
13	55901	320	nan
13	61260	340	0.20760772713738
13	66564	360	1.8865699120391
13	71830	380	1.0190205537041
13	77161	400	1.9041145716266
13	82470	420	nan
13	87744	440	1.1663850277905
13	93139	460	1.3073219184017
13	98484	480	2.9916259704776
13	103698	500	1.9520108917281
13	108876	520	0.38280923298219
13	114139	540	0.89647618610356
13	119574	560	nan
13	124852	580	nan
13	130160	600	0.8044891065916
13	135524	620	1.5799227904165
13	140848	640	0.35063004551008
13	146116	660	nan
13	151447	680	nan
13	156626	700	0.02679761796552
13	161878	720	0.67051141549714
13	167249	740	0.42220071888721
13	172623	760	3.2640706080457
13	177947	780	0.68478146212367
13	183346	800	1.1755445792254
13	188738	820	1.838000472238
13	194081	840	0.047068604973168
13	199416	860	2.205369292779
13	204812	880	0.99264532159166
13	210156	900	1.2906797275279
13	215517	920	1.0616902474653
13	220886	940	1.4447154158715
13	226341	960	0.29485922413795
13	231635	980	1.1530472211105
13	236944	1000	1.3901122784639
13	242279	1020	nan
13	247504	1040	0.21030856919887
13	252835	1060	0.44688466034313
13	258086	1080	nan
13	263281	1100	1.4408030473498
13	268621	1120	1.8959086827856
13	274037	1140	nan
13	279402	1160	0.16159292625147
13	284670	1180	1.108796178715
13	290001	1200	0.53613804940954
13	295318	1220	0.62278808532706
13	300602	1240	0.95188155070474
13	305951	1260	0.069324630979604
13	311219	1280	0.74241975271096
13	316574	1300	0.83714341961605
13	322054	1320	1.3775069456311
13	327395	1340	0.2305134218702
13	332652	1360	0.79190309608859
13	337754	1380	nan
13	343187	1400	nan
13	348498	1420	0.78839848320007
13	353844	1440	1.7296648643135
13	359128	1460	nan
13	364492	1480	2.7936115731261
13	369776	1500	0.16304220478935
13	375050	1520	3.2378782210986
13	380450	1540	0.59025121192987
13	385955	1560	nan
13	391186	1580	nan
13	396547	1600	1.8022927295452
13	401793	1620	1.9752677823692
13	407086	1640	1.7483771372938
13	412367	1660	nan
13	417670	1680	0.43541615873266
13	423009	1700	0.35190872527405
13	428236	1720	0.66614656894933
13	433635	1740	nan
13	438836	1760	1.3884421541348
13	444122	1780	0.5097099288911
13	449503	1800	3.8533459515319
13	454375	1820	nan
13	458714	1840	nan
13	462432	1860	nan
13	465716	1880	nan