version 2
run statisticRVV-141-20150325-14:51:43-24412
attr c 16
attr configname statisticRVV
attr datetime 20150325-14:51:43
attr experiment statisticRVV
attr inifile omnetpp.ini
attr iterationvars "$sc=\"erlangen-medium.launchd.xml\", $p=1/15, $c=16"
attr iterationvars2 "$sc=\"erlangen-medium.launchd.xml\", $p=1/15, $c=16, $repetition=1"
attr measurement "$sc=\"erlangen-medium.launchd.xml\", $p=1/15, $c=16"
attr network RSUExampleScenario
attr p 1/15
attr processid 24412
attr repetition 1
attr replication #1
attr resultdir results
attr runnumber 141
attr sc "\"erlangen-medium.launchd.xml\""
attr seedset 141

vector 0  RSUExampleScenario.rsu[0].appl  Number_CH  ETV
vector 1  RSUExampleScenario.rsu[0].appl  Number_ON  ETV
vector 2  RSUExampleScenario.rsu[0].appl  Number_FN  ETV
vector 3  RSUExampleScenario.rsu[0].appl  Number_CH_Losts  ETV
vector 4  RSUExampleScenario.rsu[0].appl  Mean_Cluster_Size  ETV
vector 5  RSUExampleScenario.rsu[0].appl  StdDev_Cluster_Size  ETV
vector 6  RSUExampleScenario.rsu[0].appl  Variance_Cluster_Size  ETV
vector 7  RSUExampleScenario.rsu[0].appl  Mean_Neighbors  ETV
vector 8  RSUExampleScenario.rsu[0].appl  StdDev_Neighbors  ETV
vector 9  RSUExampleScenario.rsu[0].appl  Variance_Neighbors  ETV
vector 10  RSUExampleScenario.rsu[0].appl  Total_CH_Utility  ETV
vector 11  RSUExampleScenario.rsu[0].appl  Mean_CH_Utility  ETV
vector 12  RSUExampleScenario.rsu[0].appl  StdDev_CH_Utility  ETV
vector 13  RSUExampleScenario.rsu[0].appl  Variance_CH_Utility  ETV
vector 14  RSUExampleScenario.rsu[0].appl  Total_exp_CH_Utility  ETV
vector 15  RSUExampleScenario.rsu[0].appl  Mean_exp_CH_Utility  ETV
vector 16  RSUExampleScenario.rsu[0].appl  StdDev_exp_CH_Utility  ETV
vector 17  RSUExampleScenario.rsu[0].appl  Variance_exp_CH_Utility  ETV
vector 18  RSUExampleScenario.rsu[0].appl  Total_ON_Utility  ETV
vector 19  RSUExampleScenario.rsu[0].appl  Mean_ON_Utility  ETV
vector 20  RSUExampleScenario.rsu[0].appl  StdDev_ON_Utility  ETV
vector 21  RSUExampleScenario.rsu[0].appl  Variance_ON_Utility  ETV
vector 22  RSUExampleScenario.rsu[0].appl  Total_exp_ON_Utility  ETV
vector 23  RSUExampleScenario.rsu[0].appl  Mean_exp_ON_Utility  ETV
vector 24  RSUExampleScenario.rsu[0].appl  StdDev_exp_ON_Utility  ETV
vector 25  RSUExampleScenario.rsu[0].appl  Variance_exp_ON_Utility  ETV
0	145746	240	2
0	171590	260	4
0	198602	280	5
0	226058	300	2
0	253650	320	2
0	280954	340	4
0	308294	360	5
0	335332	380	5
0	363119	400	6
0	391280	420	4
0	419996	440	5
0	448982	460	2
0	478440	480	5
0	509011	500	5
0	539910	520	3
0	571152	540	5
0	603508	560	6
0	636475	580	5
0	670412	600	5
0	704875	620	4
0	740561	640	6
0	777474	660	6
0	815065	680	2
0	854476	700	11
0	894336	720	8
0	935109	740	6
0	977367	760	5
0	1021279	780	8
0	1065821	800	9
0	1111601	820	5
0	1159133	840	8
0	1207436	860	10
0	1256850	880	4
0	1307437	900	5
0	1359120	920	4
0	1411681	940	3
0	1465475	960	5
0	1520623	980	3
0	1577604	1000	11
0	1636119	1020	5
0	1695934	1040	15
0	1757953	1060	6
0	1821608	1080	8
0	1886444	1100	9
0	1953077	1120	19
0	2021647	1140	6
0	2091507	1160	5
0	2163470	1180	12
0	2237133	1200	11
0	2312921	1220	3
0	2391082	1240	8
0	2470836	1260	6
0	2553020	1280	6
0	2637347	1300	13
0	2723012	1320	7
0	2811229	1340	11
0	2900964	1360	12
0	2993010	1380	15
0	3087313	1400	7
0	3183667	1420	7
0	3281844	1440	11
0	3382827	1460	10
0	3485726	1480	9
0	3590931	1500	7
0	3698577	1520	5
0	3809198	1540	10
0	3921605	1560	5
0	4036571	1580	12
0	4152913	1600	6
0	4272442	1620	8
0	4394580	1640	13
0	4517725	1660	9
0	4643796	1680	10
0	4772416	1700	13
0	4902521	1720	9
0	5035471	1740	8
0	5171584	1760	5
0	5309365	1780	7
0	5450199	1800	11
0	5592614	1820	10
0	5737764	1840	11
0	5885958	1860	10
0	6036124	1880	9
0	6188167	1900	8
0	6344165	1920	8
0	6502794	1940	13
0	6663923	1960	12
0	6826850	1980	9
0	6992863	2000	12
1	145746	240	2
1	171590	260	5
1	198602	280	7
1	226058	300	3
1	253650	320	2
1	280954	340	7
1	308294	360	5
1	335332	380	7
1	363119	400	8
1	391280	420	5
1	419996	440	5
1	448982	460	3
1	478440	480	6
1	509011	500	6
1	539910	520	3
1	571152	540	8
1	603508	560	12
1	636475	580	6
1	670412	600	9
1	704875	620	6
1	740561	640	9
1	777474	660	9
1	815065	680	3
1	854476	700	16
1	894336	720	8
1	935109	740	6
1	977367	760	5
1	1021279	780	12
1	1065821	800	12
1	1111601	820	9
1	1159133	840	10
1	1207436	860	14
1	1256850	880	6
1	1307437	900	8
1	1359120	920	6
1	1411681	940	4
1	1465475	960	5
1	1520623	980	4
1	1577604	1000	18
1	1636119	1020	7
1	1695934	1040	22
1	1757953	1060	8
1	1821608	1080	14
1	1886444	1100	13
1	1953077	1120	31
1	2021647	1140	10
1	2091507	1160	7
1	2163470	1180	18
1	2237133	1200	16
1	2312921	1220	5
1	2391082	1240	10
1	2470836	1260	7
1	2553020	1280	9
1	2637347	1300	20
1	2723012	1320	11
1	2811229	1340	13
1	2900964	1360	19
1	2993010	1380	22
1	3087313	1400	8
1	3183667	1420	11
1	3281844	1440	15
1	3382827	1460	16
1	3485726	1480	11
1	3590931	1500	11
1	3698577	1520	8
1	3809198	1540	14
1	3921605	1560	8
1	4036571	1580	16
1	4152913	1600	8
1	4272442	1620	13
1	4394580	1640	18
1	4517725	1660	14
1	4643796	1680	15
1	4772416	1700	21
1	4902521	1720	15
1	5035471	1740	13
1	5171584	1760	5
1	5309365	1780	12
1	5450199	1800	18
1	5592614	1820	14
1	5737764	1840	17
1	5885958	1860	16
1	6036124	1880	16
1	6188167	1900	15
1	6344165	1920	13
1	6502794	1940	17
1	6663923	1960	17
1	6826850	1980	14
1	6992863	2000	16
2	145746	240	74
2	171590	260	77
2	198602	280	81
2	226058	300	88
2	253650	320	90
2	280954	340	83
2	308294	360	84
2	335332	380	82
2	363119	400	80
2	391280	420	87
2	419996	440	88
2	448982	460	95
2	478440	480	89
2	509011	500	89
2	539910	520	97
2	571152	540	90
2	603508	560	88
2	636475	580	95
2	670412	600	94
2	704875	620	100
2	740561	640	96
2	777474	660	96
2	815065	680	107
2	854476	700	86
2	894336	720	100
2	935109	740	102
2	977367	760	107
2	1021279	780	98
2	1065821	800	99
2	1111601	820	106
2	1159133	840	105
2	1207436	860	101
2	1256850	880	116
2	1307437	900	113
2	1359120	920	116
2	1411681	940	121
2	1465475	960	118
2	1520623	980	124
2	1577604	1000	105
2	1636119	1020	122
2	1695934	1040	96
2	1757953	1060	122
2	1821608	1080	118
2	1886444	1100	116
2	1953077	1120	89
2	2021647	1140	125
2	2091507	1160	130
2	2163470	1180	115
2	2237133	1200	117
2	2312921	1220	138
2	2391082	1240	129
2	2470836	1260	136
2	2553020	1280	136
2	2637347	1300	120
2	2723012	1320	136
2	2811229	1340	130
2	2900964	1360	124
2	2993010	1380	119
2	3087313	1400	144
2	3183667	1420	140
2	3281844	1440	134
2	3382827	1460	135
2	3485726	1480	142
2	3590931	1500	144
2	3698577	1520	152
2	3809198	1540	142
2	3921605	1560	154
2	4036571	1580	140
2	4152913	1600	155
2	4272442	1620	150
2	4394580	1640	142
2	4517725	1660	150
2	4643796	1680	149
2	4772416	1700	141
2	4902521	1720	153
2	5035471	1740	158
2	5171584	1760	169
2	5309365	1780	161
2	5450199	1800	153
2	5592614	1820	159
2	5737764	1840	155
2	5885958	1860	161
2	6036124	1880	161
2	6188167	1900	166
2	6344165	1920	168
2	6502794	1940	160
2	6663923	1960	163
2	6826850	1980	171
2	6992863	2000	167
3	145746	240	1
3	171590	260	3
3	198602	280	2
3	226058	300	4
3	253650	320	0
3	280954	340	0
3	308294	360	1
3	335332	380	0
3	363119	400	3
3	391280	420	1
3	419996	440	1
3	448982	460	0
3	478440	480	0
3	509011	500	4
3	539910	520	1
3	571152	540	1
3	603508	560	3
3	636475	580	0
3	670412	600	3
3	704875	620	2
3	740561	640	5
3	777474	660	0
3	815065	680	2
3	854476	700	3
3	894336	720	0
3	935109	740	1
3	977367	760	0
3	1021279	780	4
3	1065821	800	2
3	1111601	820	4
3	1159133	840	3
3	1207436	860	0
3	1256850	880	2
3	1307437	900	0
3	1359120	920	2
3	1411681	940	3
3	1465475	960	2
3	1520623	980	1
3	1577604	1000	1
3	1636119	1020	3
3	1695934	1040	1
3	1757953	1060	2
3	1821608	1080	0
3	1886444	1100	1
3	1953077	1120	1
3	2021647	1140	2
3	2091507	1160	0
3	2163470	1180	6
3	2237133	1200	3
3	2312921	1220	1
3	2391082	1240	1
3	2470836	1260	2
3	2553020	1280	3
3	2637347	1300	3
3	2723012	1320	1
3	2811229	1340	0
3	2900964	1360	3
3	2993010	1380	1
3	3087313	1400	1
3	3183667	1420	2
3	3281844	1440	2
3	3382827	1460	3
3	3485726	1480	1
3	3590931	1500	2
3	3698577	1520	4
3	3809198	1540	0
3	3921605	1560	2
3	4036571	1580	1
3	4152913	1600	2
3	4272442	1620	1
3	4394580	1640	2
3	4517725	1660	2
3	4643796	1680	2
3	4772416	1700	1
3	4902521	1720	2
3	5035471	1740	1
3	5171584	1760	3
3	5309365	1780	3
3	5450199	1800	3
3	5592614	1820	1
3	5737764	1840	3
3	5885958	1860	2
3	6036124	1880	4
3	6188167	1900	1
3	6344165	1920	1
3	6502794	1940	3
3	6663923	1960	1
3	6826850	1980	2
3	6992863	2000	0
4	145746	240	1
4	171590	260	1.25
4	198602	280	1.4
4	226058	300	1.5
4	253650	320	1
4	280954	340	1.75
4	308294	360	1
4	335332	380	1.4
4	363119	400	1.3333333333333
4	391280	420	1.25
4	419996	440	1
4	448982	460	1.5
4	478440	480	1.2
4	509011	500	1.2
4	539910	520	1
4	571152	540	1.6
4	603508	560	2
4	636475	580	1.2
4	670412	600	1.8
4	704875	620	1.5
4	740561	640	1.5
4	777474	660	1.5
4	815065	680	1.5
4	854476	700	1.4545454545455
4	894336	720	1
4	935109	740	1
4	977367	760	1
4	1021279	780	1.5
4	1065821	800	1.3333333333333
4	1111601	820	1.8
4	1159133	840	1.25
4	1207436	860	1.4
4	1256850	880	1.5
4	1307437	900	1.6
4	1359120	920	1.5
4	1411681	940	1.3333333333333
4	1465475	960	1
4	1520623	980	1.3333333333333
4	1577604	1000	1.6363636363636
4	1636119	1020	1.4
4	1695934	1040	1.4666666666667
4	1757953	1060	1.3333333333333
4	1821608	1080	1.75
4	1886444	1100	1.4444444444444
4	1953077	1120	1.6315789473684
4	2021647	1140	1.6666666666667
4	2091507	1160	1.4
4	2163470	1180	1.5
4	2237133	1200	1.4545454545455
4	2312921	1220	1.6666666666667
4	2391082	1240	1.25
4	2470836	1260	1.1666666666667
4	2553020	1280	1.5
4	2637347	1300	1.5384615384615
4	2723012	1320	1.5714285714286
4	2811229	1340	1.1818181818182
4	2900964	1360	1.5833333333333
4	2993010	1380	1.4666666666667
4	3087313	1400	1.1428571428571
4	3183667	1420	1.5714285714286
4	3281844	1440	1.3636363636364
4	3382827	1460	1.6
4	3485726	1480	1.2222222222222
4	3590931	1500	1.5714285714286
4	3698577	1520	1.6
4	3809198	1540	1.4
4	3921605	1560	1.6
4	4036571	1580	1.3333333333333
4	4152913	1600	1.3333333333333
4	4272442	1620	1.625
4	4394580	1640	1.3846153846154
4	4517725	1660	1.5555555555556
4	4643796	1680	1.5
4	4772416	1700	1.6153846153846
4	4902521	1720	1.6666666666667
4	5035471	1740	1.625
4	5171584	1760	1
4	5309365	1780	1.7142857142857
4	5450199	1800	1.6363636363636
4	5592614	1820	1.4
4	5737764	1840	1.5454545454545
4	5885958	1860	1.6
4	6036124	1880	1.7777777777778
4	6188167	1900	1.875
4	6344165	1920	1.625
4	6502794	1940	1.3076923076923
4	6663923	1960	1.4166666666667
4	6826850	1980	1.5555555555556
4	6992863	2000	1.3333333333333
5	145746	240	0
5	171590	260	0.5
5	198602	280	0.54772255750517
5	226058	300	0.70710678118655
5	253650	320	0
5	280954	340	0.5
5	308294	360	0
5	335332	380	0.54772255750517
5	363119	400	0.51639777949432
5	391280	420	0.5
5	419996	440	0
5	448982	460	0.70710678118655
5	478440	480	0.44721359549996
5	509011	500	0.44721359549996
5	539910	520	0
5	571152	540	0.54772255750517
5	603508	560	0.63245553203368
5	636475	580	0.44721359549996
5	670412	600	0.83666002653408
5	704875	620	0.57735026918963
5	740561	640	0.54772255750517
5	777474	660	0.54772255750517
5	815065	680	0.70710678118655
5	854476	700	0.52223296786709
5	894336	720	0
5	935109	740	0
5	977367	760	0
5	1021279	780	0.53452248382485
5	1065821	800	0.5
5	1111601	820	0.83666002653408
5	1159133	840	0.46291004988628
5	1207436	860	0.51639777949432
5	1256850	880	0.57735026918963
5	1307437	900	0.54772255750517
5	1359120	920	0.57735026918963
5	1411681	940	0.57735026918963
5	1465475	960	0
5	1520623	980	0.57735026918963
5	1577604	1000	0.50452497910951
5	1636119	1020	0.54772255750517
5	1695934	1040	0.51639777949432
5	1757953	1060	0.51639777949432
5	1821608	1080	0.70710678118655
5	1886444	1100	0.52704627669473
5	1953077	1120	0.59726472037015
5	2021647	1140	0.81649658092773
5	2091507	1160	0.54772255750517
5	2163470	1180	0.67419986246324
5	2237133	1200	0.52223296786709
5	2312921	1220	0.57735026918963
5	2391082	1240	0.46291004988628
5	2470836	1260	0.40824829046386
5	2553020	1280	0.54772255750517
5	2637347	1300	0.77625002580618
5	2723012	1320	0.53452248382485
5	2811229	1340	0.40451991747795
5	2900964	1360	0.51492865054444
5	2993010	1380	0.51639777949432
5	3087313	1400	0.37796447300923
5	3183667	1420	0.53452248382485
5	3281844	1440	0.50452497910951
5	3382827	1460	0.51639777949432
5	3485726	1480	0.4409585518441
5	3590931	1500	0.53452248382485
5	3698577	1520	0.54772255750517
5	3809198	1540	0.51639777949432
5	3921605	1560	0.54772255750517
5	4036571	1580	0.49236596391733
5	4152913	1600	0.51639777949432
5	4272442	1620	0.51754916950677
5	4394580	1640	0.50636968354183
5	4517725	1660	0.52704627669473
5	4643796	1680	0.52704627669473
5	4772416	1700	0.50636968354183
5	4902521	1720	0.5
5	5035471	1740	0.51754916950677
5	5171584	1760	0
5	5309365	1780	0.48795003647427
5	5450199	1800	0.50452497910951
5	5592614	1820	0.51639777949432
5	5737764	1840	0.52223296786709
5	5885958	1860	0.51639777949432
5	6036124	1880	0.4409585518441
5	6188167	1900	0.35355339059327
5	6344165	1920	0.51754916950677
5	6502794	1940	0.48038446141526
5	6663923	1960	0.51492865054444
5	6826850	1980	0.52704627669473
5	6992863	2000	0.49236596391733
6	145746	240	0
6	171590	260	0.25
6	198602	280	0.3
6	226058	300	0.5
6	253650	320	0
6	280954	340	0.25
6	308294	360	0
6	335332	380	0.3
6	363119	400	0.26666666666667
6	391280	420	0.25
6	419996	440	0
6	448982	460	0.5
6	478440	480	0.2
6	509011	500	0.2
6	539910	520	0
6	571152	540	0.3
6	603508	560	0.4
6	636475	580	0.2
6	670412	600	0.7
6	704875	620	0.33333333333333
6	740561	640	0.3
6	777474	660	0.3
6	815065	680	0.5
6	854476	700	0.27272727272727
6	894336	720	0
6	935109	740	0
6	977367	760	0
6	1021279	780	0.28571428571429
6	1065821	800	0.25
6	1111601	820	0.7
6	1159133	840	0.21428571428571
6	1207436	860	0.26666666666667
6	1256850	880	0.33333333333333
6	1307437	900	0.3
6	1359120	920	0.33333333333333
6	1411681	940	0.33333333333333
6	1465475	960	0
6	1520623	980	0.33333333333333
6	1577604	1000	0.25454545454545
6	1636119	1020	0.3
6	1695934	1040	0.26666666666667
6	1757953	1060	0.26666666666667
6	1821608	1080	0.5
6	1886444	1100	0.27777777777778
6	1953077	1120	0.35672514619883
6	2021647	1140	0.66666666666667
6	2091507	1160	0.3
6	2163470	1180	0.45454545454545
6	2237133	1200	0.27272727272727
6	2312921	1220	0.33333333333333
6	2391082	1240	0.21428571428571
6	2470836	1260	0.16666666666667
6	2553020	1280	0.3
6	2637347	1300	0.6025641025641
6	2723012	1320	0.28571428571429
6	2811229	1340	0.16363636363636
6	2900964	1360	0.26515151515152
6	2993010	1380	0.26666666666667
6	3087313	1400	0.14285714285714
6	3183667	1420	0.28571428571429
6	3281844	1440	0.25454545454545
6	3382827	1460	0.26666666666667
6	3485726	1480	0.19444444444444
6	3590931	1500	0.28571428571429
6	3698577	1520	0.3
6	3809198	1540	0.26666666666667
6	3921605	1560	0.3
6	4036571	1580	0.24242424242424
6	4152913	1600	0.26666666666667
6	4272442	1620	0.26785714285714
6	4394580	1640	0.25641025641026
6	4517725	1660	0.27777777777778
6	4643796	1680	0.27777777777778
6	4772416	1700	0.25641025641026
6	4902521	1720	0.25
6	5035471	1740	0.26785714285714
6	5171584	1760	0
6	5309365	1780	0.23809523809524
6	5450199	1800	0.25454545454545
6	5592614	1820	0.26666666666667
6	5737764	1840	0.27272727272727
6	5885958	1860	0.26666666666667
6	6036124	1880	0.19444444444444
6	6188167	1900	0.125
6	6344165	1920	0.26785714285714
6	6502794	1940	0.23076923076923
6	6663923	1960	0.26515151515152
6	6826850	1980	0.27777777777778
6	6992863	2000	0.24242424242424
7	145746	240	23.103896103896
7	171590	260	22.541176470588
7	198602	280	21.967741935484
7	226058	300	22.591397849462
7	253650	320	22.63829787234
7	280954	340	22.404255319149
7	308294	360	22.457446808511
7	335332	380	22.159574468085
7	363119	400	22.436170212766
7	391280	420	22.177083333333
7	419996	440	21.959183673469
7	448982	460	21.92
7	478440	480	22.23
7	509011	500	22.59
7	539910	520	22.466019417476
7	571152	540	22.93137254902
7	603508	560	22.660377358491
7	636475	580	23.066037735849
7	670412	600	23.527777777778
7	704875	620	23.752293577982
7	740561	640	23.981981981982
7	777474	660	25.054545454545
7	815065	680	25.288288288288
7	854476	700	25.938053097345
7	894336	720	26.043103448276
7	935109	740	26.90350877193
7	977367	760	27.487179487179
7	1021279	780	28.008474576271
7	1065821	800	28.191666666667
7	1111601	820	28.75
7	1159133	840	29.008130081301
7	1207436	860	29.048
7	1256850	880	29.555555555556
7	1307437	900	29.285714285714
7	1359120	920	30.055555555556
7	1411681	940	30.6640625
7	1465475	960	30.9296875
7	1520623	980	31.223076923077
7	1577604	1000	31.425373134328
7	1636119	1020	32.518796992481
7	1695934	1040	32.827067669173
7	1757953	1060	33.102941176471
7	1821608	1080	33.721428571429
7	1886444	1100	34.231884057971
7	1953077	1120	35.143884892086
7	2021647	1140	35.539007092199
7	2091507	1160	36.021126760563
7	2163470	1180	36.496551724138
7	2237133	1200	37.58041958042
7	2312921	1220	38.390410958904
7	2391082	1240	39.22602739726
7	2470836	1260	39.228187919463
7	2553020	1280	39.695364238411
7	2637347	1300	40.954248366013
7	2723012	1320	41.551948051948
7	2811229	1340	42.320261437908
7	2900964	1360	42.98064516129
7	2993010	1380	44.012820512821
7	3087313	1400	44.658227848101
7	3183667	1420	44.778481012658
7	3281844	1440	45.44375
7	3382827	1460	46.56875
7	3485726	1480	47.283950617284
7	3590931	1500	47.925925925926
7	3698577	1520	49.012195121951
7	3809198	1540	49.433734939759
7	3921605	1560	49.880239520958
7	4036571	1580	50.571428571429
7	4152913	1600	51.065088757396
7	4272442	1620	51.111111111111
7	4394580	1640	51.653179190751
7	4517725	1660	52.260115606936
7	4643796	1680	52.609195402299
7	4772416	1700	53.994285714286
7	4902521	1720	53.988700564972
7	5035471	1740	54.402234636872
7	5171584	1760	54.675977653631
7	5309365	1780	55.283333333333
7	5450199	1800	55.851648351648
7	5592614	1820	56.584699453552
7	5737764	1840	57.07650273224
7	5885958	1860	57.459893048128
7	6036124	1880	58.311827956989
7	6188167	1900	58.803191489362
7	6344165	1920	59.137566137566
7	6502794	1940	60.442105263158
7	6663923	1960	60.416666666667
7	6826850	1980	60.994845360825
7	6992863	2000	61.353846153846
8	145746	240	3.7225642533934
8	171590	260	4.5027846970526
8	198602	280	5.2117167598453
8	226058	300	4.0946321147586
8	253650	320	3.9427381562034
8	280954	340	4.9281267547066
8	308294	360	3.9285689030705
8	335332	380	4.4608287756159
8	363119	400	4.2567050477088
8	391280	420	4.7483953891741
8	419996	440	4.6968257922364
8	448982	460	4.4916982907753
8	478440	480	4.0473335779139
8	509011	500	4.0653624336794
8	539910	520	3.6643902041468
8	571152	540	3.0058023225767
8	603508	560	4.084551132191
8	636475	580	3.1540416035077
8	670412	600	3.7076791575327
8	704875	620	3.0706374151365
8	740561	640	4.2746227520566
8	777474	660	3.3230812595463
8	815065	680	3.342256688329
8	854476	700	4.9808260678912
8	894336	720	5.7064299985486
8	935109	740	5.5621497375981
8	977367	760	5.6455893443548
8	1021279	780	6.7854743835976
8	1065821	800	7.6028475794617
8	1111601	820	7.6688280962444
8	1159133	840	8.2665590745944
8	1207436	860	8.4527682047114
8	1256850	880	8.7895898020834
8	1307437	900	9.1081125534171
8	1359120	920	9.3289275315488
8	1411681	940	9.8166477140885
8	1465475	960	9.9654391701686
8	1520623	980	10.253579737628
8	1577604	1000	11.299329187403
8	1636119	1020	11.471044907465
8	1695934	1040	11.556522019396
8	1757953	1060	12.566433485467
8	1821608	1080	13.229609181513
8	1886444	1100	13.016715729984
8	1953077	1120	13.965569022835
8	2021647	1140	14.531010057556
8	2091507	1160	15.071681354887
8	2163470	1180	15.748952406929
8	2237133	1200	15.515740570676
8	2312921	1220	16.45573929339
8	2391082	1240	17.077418260803
8	2470836	1260	17.763126400834
8	2553020	1280	18.437278677536
8	2637347	1300	19.185500236706
8	2723012	1320	19.351256805984
8	2811229	1340	19.861909325049
8	2900964	1360	20.317119314593
8	2993010	1380	20.929678628141
8	3087313	1400	21.733701603144
8	3183667	1420	22.081961805248
8	3281844	1440	22.722207261404
8	3382827	1460	22.948841621333
8	3485726	1480	23.748806870534
8	3590931	1500	23.953255605581
8	3698577	1520	24.483621119584
8	3809198	1540	25.169819720323
8	3921605	1560	25.72322620138
8	4036571	1580	25.855325591066
8	4152913	1600	26.298004181884
8	4272442	1620	26.553706829843
8	4394580	1640	26.664931105864
8	4517725	1660	26.916893502046
8	4643796	1680	27.10303880829
8	4772416	1700	27.349693129644
8	4902521	1720	27.352702355394
8	5035471	1740	27.842155321668
8	5171584	1760	28.490014681267
8	5309365	1780	28.383895622804
8	5450199	1800	28.612962571222
8	5592614	1820	28.675183316473
8	5737764	1840	29.207003616074
8	5885958	1860	29.318463594046
8	6036124	1880	29.490806077946
8	6188167	1900	29.752429288773
8	6344165	1920	30.210821585209
8	6502794	1940	30.542611673194
8	6663923	1960	30.704355018514
8	6826850	1980	31.13126103624
8	6992863	2000	31.151325418624
9	145746	240	13.857484620643
9	171590	260	20.275070028011
9	198602	280	27.161991584853
9	226058	300	16.766012155213
9	253650	320	15.545184168383
9	280954	340	24.286433310455
9	308294	360	15.433653626173
9	335332	380	19.898993365363
9	363119	400	18.119537863189
9	391280	420	22.54725877193
9	419996	440	22.060172522617
9	448982	460	20.175353535354
9	478440	480	16.380909090909
9	509011	500	16.527171717172
9	539910	520	13.427755568247
9	571152	540	9.0348476024073
9	603508	560	16.683557951482
9	636475	580	9.9479784366577
9	670412	600	13.746884735202
9	704875	620	9.4288141352362
9	740561	640	18.2723996724
9	777474	660	11.042869057548
9	815065	680	11.17067977068
9	854476	700	24.808628318584
9	894336	720	32.563343328336
9	935109	740	30.937509703462
9	977367	760	31.872679045093
9	1021279	780	46.042662610459
9	1065821	800	57.803291316527
9	1111601	820	58.810924369748
9	1159133	840	68.33599893376
9	1207436	860	71.449290322581
9	1256850	880	77.256888888889
9	1307437	900	82.957714285714
9	1359120	920	87.028888888889
9	1411681	940	96.36657234252
9	1465475	960	99.309977854331
9	1520623	980	105.1358974359
9	1577604	1000	127.67484008529
9	1636119	1020	131.58487126908
9	1695934	1040	133.55320118478
9	1757953	1060	157.91525054466
9	1821608	1080	175.02255909558
9	1886444	1100	169.43488839522
9	1953077	1120	195.03711813158
9	2021647	1140	211.15025329281
9	2091507	1160	227.15557886325
9	2163470	1180	248.02950191571
9	2237133	1200	240.73820545652
9	2312921	1220	270.79135569202
9	2391082	1240	291.63821445442
9	2470836	1260	315.52865953202
9	2553020	1280	339.93324503311
9	2637347	1300	368.08341933265
9	2723012	1320	374.47113997114
9	2811229	1340	394.49544203646
9	2900964	1360	412.7853372434
9	2993010	1380	438.05144747725
9	3087313	1400	472.35378537451
9	3183667	1420	487.61303716843
9	3281844	1440	516.29870283019
9	3382827	1460	526.64933176101
9	3485726	1480	564.00582777394
9	3590931	1500	573.75845410628
9	3698577	1520	599.44770312734
9	3809198	1540	633.51982475356
9	3921605	1560	661.68436620734
9	4036571	1580	668.49786142002
9	4152913	1600	691.58502395041
9	4272442	1620	705.09934640523
9	4394580	1640	711.01855088049
9	4517725	1660	724.51915580051
9	4643796	1680	734.57471264368
9	4772416	1700	748.00571428571
9	4902521	1720	748.17032614278
9	5035471	1740	775.18561295587
9	5171584	1760	811.68093653882
9	5309365	1780	805.64553072626
9	5450199	1800	818.70162710218
9	5592614	1820	822.26613823335
9	5737764	1840	853.04906022939
9	5885958	1860	859.57230751538
9	6036124	1880	869.707643127
9	6188167	1900	885.20704858346
9	6344165	1920	912.69374085332
9	6502794	1940	932.85112781955
9	6663923	1960	942.75741710297
9	6826850	1980	969.15541370653
9	6992863	2000	970.40507533703
10	145746	240	94.801196226261
10	171590	260	195.8709528955
10	198602	280	240.8063868411
10	226058	300	95.57864154655
10	253650	320	95.225950959986
10	280954	340	184.37158248041
10	308294	360	242.65448034823
10	335332	380	236.11172475982
10	363119	400	282.15745186635
10	391280	420	191.01589962136
10	419996	440	241.58792195859
10	448982	460	92.349959016343
10	478440	480	244.13870315966
10	509011	500	238.77637927494
10	539910	520	145.26714290476
10	571152	540	239.30839459977
10	603508	560	298.17762014316
10	636475	580	255.7117725378
10	670412	600	238.9692341554
10	704875	620	197.90657159776
10	740561	640	301.65222139237
10	777474	660	303.55917160551
10	815065	680	95.323912854234
10	854476	700	539.14698997953
10	894336	720	395.811340722
10	935109	740	303.0437319438
10	977367	760	247.77735601485
10	1021279	780	391.35741969655
10	1065821	800	441.18544519328
10	1111601	820	247.15378156975
10	1159133	840	401.61634239996
10	1207436	860	484.2067803631
10	1256850	880	206.49240330123
10	1307437	900	244.14151732252
10	1359120	920	194.76339394437
10	1411681	940	152.00048518592
10	1465475	960	238.05157832566
10	1520623	980	149.29189739328
10	1577604	1000	546.66086963908
10	1636119	1020	242.26858560912
10	1695934	1040	736.22329218767
10	1757953	1060	296.27038097634
10	1821608	1080	403.86888279059
10	1886444	1100	459.23611873898
10	1953077	1120	943.3925708727
10	2021647	1140	309.14588205092
10	2091507	1160	239.2488916051
10	2163470	1180	594.55930699375
10	2237133	1200	542.80830807203
10	2312921	1220	141.66953425335
10	2391082	1240	408.92947670902
10	2470836	1260	300.82220014411
10	2553020	1280	300.8144740652
10	2637347	1300	642.57101941139
10	2723012	1320	347.15880583979
10	2811229	1340	535.34617277608
10	2900964	1360	588.49650255622
10	2993010	1380	739.39509067557
10	3087313	1400	357.92919417256
10	3183667	1420	350.74099884845
10	3281844	1440	564.43711697313
10	3382827	1460	499.13759139812
10	3485726	1480	471.54012935592
10	3590931	1500	347.24441309112
10	3698577	1520	255.49251363738
10	3809198	1540	494.01399710756
10	3921605	1560	248.63557016714
10	4036571	1580	602.28199963943
10	4152913	1600	307.35682722765
10	4272442	1620	406.71688082451
10	4394580	1640	648.12442517668
10	4517725	1660	455.97811350541
10	4643796	1680	495.01310795015
10	4772416	1700	638.19175751376
10	4902521	1720	456.40450282116
10	5035471	1740	403.31320430652
10	5171584	1760	245.91347587312
10	5309365	1780	342.2192595348
10	5450199	1800	553.52370467712
10	5592614	1820	512.83796918531
10	5737764	1840	557.24984839108
10	5885958	1860	497.35289466947
10	6036124	1880	453.35986491034
10	6188167	1900	408.9444046803
10	6344165	1920	421.05200092499
10	6502794	1940	651.53434435198
10	6663923	1960	620.87695835023
10	6826850	1980	457.24958524158
10	6992863	2000	607.57915242032
11	145746	240	47.400598113131
11	171590	260	48.967738223876
11	198602	280	48.16127736822
11	226058	300	47.789320773275
11	253650	320	47.612975479993
11	280954	340	46.092895620103
11	308294	360	48.530896069646
11	335332	380	47.222344951965
11	363119	400	47.026241977725
11	391280	420	47.753974905341
11	419996	440	48.317584391718
11	448982	460	46.174979508171
11	478440	480	48.827740631932
11	509011	500	47.755275854988
11	539910	520	48.422380968255
11	571152	540	47.861678919954
11	603508	560	49.696270023861
11	636475	580	51.14235450756
11	670412	600	47.793846831081
11	704875	620	49.476642899441
11	740561	640	50.275370232061
11	777474	660	50.593195267585
11	815065	680	47.661956427117
11	854476	700	49.013362725412
11	894336	720	49.47641759025
11	935109	740	50.5072886573
11	977367	760	49.555471202971
11	1021279	780	48.919677462068
11	1065821	800	49.020605021475
11	1111601	820	49.430756313949
11	1159133	840	50.202042799995
11	1207436	860	48.42067803631
11	1256850	880	51.623100825308
11	1307437	900	48.828303464504
11	1359120	920	48.690848486093
11	1411681	940	50.666828395305
11	1465475	960	47.610315665132
11	1520623	980	49.763965797759
11	1577604	1000	49.696442694462
11	1636119	1020	48.453717121824
11	1695934	1040	49.081552812511
11	1757953	1060	49.378396829391
11	1821608	1080	50.483610348824
11	1886444	1100	51.026235415442
11	1953077	1120	49.652240572247
11	2021647	1140	51.524313675154
11	2091507	1160	47.84977832102
11	2163470	1180	49.546608916146
11	2237133	1200	49.34620982473
11	2312921	1220	47.223178084449
11	2391082	1240	51.116184588627
11	2470836	1260	50.137033357351
11	2553020	1280	50.135745677534
11	2637347	1300	49.428539954722
11	2723012	1320	49.594115119969
11	2811229	1340	48.667833888735
11	2900964	1360	49.041375213018
11	2993010	1380	49.293006045038
11	3087313	1400	51.132742024652
11	3183667	1420	50.10585697835
11	3281844	1440	51.312465179375
11	3382827	1460	49.913759139812
11	3485726	1480	52.393347706213
11	3590931	1500	49.606344727303
11	3698577	1520	51.098502727475
11	3809198	1540	49.401399710757
11	3921605	1560	49.727114033428
11	4036571	1580	50.190166636619
11	4152913	1600	51.226137871275
11	4272442	1620	50.839610103064
11	4394580	1640	49.85572501359
11	4517725	1660	50.664234833935
11	4643796	1680	49.501310795015
11	4772416	1700	49.091673654905
11	4902521	1720	50.711611424573
11	5035471	1740	50.414150538315
11	5171584	1760	49.182695174623
11	5309365	1780	48.888465647828
11	5450199	1800	50.320336788829
11	5592614	1820	51.283796918531
11	5737764	1840	50.659077126462
11	5885958	1860	49.735289466947
11	6036124	1880	50.373318323372
11	6188167	1900	51.118050585038
11	6344165	1920	52.631500115623
11	6502794	1940	50.118026488614
11	6663923	1960	51.739746529186
11	6826850	1980	50.805509471287
11	6992863	2000	50.631596035026
12	145746	240	1.6807354858302
12	171590	260	1.6911807282194
12	198602	280	1.1026545415668
12	226058	300	1.9952512548577
12	253650	320	1.4384635659492
12	280954	340	3.6369398230028
12	308294	360	2.0629507282433
12	335332	380	1.1114521896843
12	363119	400	0.84111032307818
12	391280	420	2.7972733121128
12	419996	440	2.1034211772852
12	448982	460	0.36609262556994
12	478440	480	1.5553386173826
12	509011	500	1.2615216867155
12	539910	520	2.7171034244572
12	571152	540	0.52523581593933
12	603508	560	3.500270820554
12	636475	580	3.8679575839868
12	670412	600	1.6175824394692
12	704875	620	3.2231674841032
12	740561	640	3.8684636426593
12	777474	660	3.2612205011794
12	815065	680	1.4199247275902
12	854476	700	2.2984997284544
12	894336	720	2.1947859810653
12	935109	740	3.2722088216854
12	977367	760	2.3188830260082
12	1021279	780	2.1982523305442
12	1065821	800	3.0300729934807
12	1111601	820	1.9595980255507
12	1159133	840	2.0812939790641
12	1207436	860	2.2912761647904
12	1256850	880	2.0870873324581
12	1307437	900	2.3477173811365
12	1359120	920	2.9074406741041
12	1411681	940	2.8692213592197
12	1465475	960	1.7257352825735
12	1520623	980	4.0963656848296
12	1577604	1000	2.9061953175091