version 2
run statisticRVV-84-20150325-03:38:55-8184
attr c 9
attr configname statisticRVV
attr datetime 20150325-03:38:55
attr experiment statisticRVV
attr inifile omnetpp.ini
attr iterationvars "$sc=\"erlangen-low.launchd.xml\", $p=1/8, $c=9"
attr iterationvars2 "$sc=\"erlangen-low.launchd.xml\", $p=1/8, $c=9, $repetition=4"
attr measurement "$sc=\"erlangen-low.launchd.xml\", $p=1/8, $c=9"
attr network RSUExampleScenario
attr p 1/8
attr processid 8184
attr repetition 4
attr replication #4
attr resultdir results
attr runnumber 84
attr sc "\"erlangen-low.launchd.xml\""
attr seedset 84

vector 0  RSUExampleScenario.rsu[0].appl  Number_CH  ETV
vector 1  RSUExampleScenario.rsu[0].appl  Number_ON  ETV
vector 2  RSUExampleScenario.rsu[0].appl  Number_FN  ETV
vector 3  RSUExampleScenario.rsu[0].appl  Number_CH_Losts  ETV
vector 4  RSUExampleScenario.rsu[0].appl  Mean_Cluster_Size  ETV
vector 5  RSUExampleScenario.rsu[0].appl  StdDev_Cluster_Size  ETV
vector 6  RSUExampleScenario.rsu[0].appl  Variance_Cluster_Size  ETV
vector 7  RSUExampleScenario.rsu[0].appl  Mean_Neighbors  ETV
vector 8  RSUExampleScenario.rsu[0].appl  StdDev_Neighbors  ETV
vector 9  RSUExampleScenario.rsu[0].appl  Variance_Neighbors  ETV
vector 10  RSUExampleScenario.rsu[0].appl  Total_CH_Utility  ETV
vector 11  RSUExampleScenario.rsu[0].appl  Mean_CH_Utility  ETV
vector 12  RSUExampleScenario.rsu[0].appl  StdDev_CH_Utility  ETV
vector 13  RSUExampleScenario.rsu[0].appl  Variance_CH_Utility  ETV
vector 14  RSUExampleScenario.rsu[0].appl  Total_exp_CH_Utility  ETV
vector 15  RSUExampleScenario.rsu[0].appl  Mean_exp_CH_Utility  ETV
vector 16  RSUExampleScenario.rsu[0].appl  StdDev_exp_CH_Utility  ETV
vector 17  RSUExampleScenario.rsu[0].appl  Variance_exp_CH_Utility  ETV
vector 18  RSUExampleScenario.rsu[0].appl  Total_ON_Utility  ETV
vector 19  RSUExampleScenario.rsu[0].appl  Mean_ON_Utility  ETV
vector 20  RSUExampleScenario.rsu[0].appl  StdDev_ON_Utility  ETV
vector 21  RSUExampleScenario.rsu[0].appl  Variance_ON_Utility  ETV
vector 22  RSUExampleScenario.rsu[0].appl  Total_exp_ON_Utility  ETV
vector 23  RSUExampleScenario.rsu[0].appl  Mean_exp_ON_Utility  ETV
vector 24  RSUExampleScenario.rsu[0].appl  StdDev_exp_ON_Utility  ETV
vector 25  RSUExampleScenario.rsu[0].appl  Variance_exp_ON_Utility  ETV
0	34167	240	5
0	39656	260	4
0	45001	280	3
0	50257	300	3
0	55649	320	4
0	60968	340	6
0	66245	360	7
0	71608	380	3
0	76955	400	2
0	82304	420	5
0	87583	440	1
0	92832	460	5
0	98157	480	3
0	103538	500	5
0	108839	520	2
0	114268	540	7
0	119555	560	8
0	124841	580	6
0	130120	600	6
0	135483	620	2
0	140755	640	6
0	146059	660	7
0	151437	680	4
0	156720	700	3
0	161940	720	6
0	167198	740	4
0	172503	760	4
0	177785	780	7
0	183104	800	4
0	188469	820	3
0	193666	840	4
0	198983	860	3
0	204412	880	3
0	209619	900	1
0	214863	920	4
0	220216	940	0
0	225500	960	4
0	230788	980	7
0	236214	1000	7
0	241638	1020	3
0	246942	1040	4
0	252194	1060	2
0	257570	1080	3
0	262854	1100	2
0	268070	1120	8
0	273338	1140	5
0	278657	1160	4
0	284000	1180	4
0	289378	1200	7
0	294674	1220	1
0	299999	1240	4
0	305188	1260	5
0	310434	1280	2
0	315723	1300	4
0	321013	1320	3
0	326223	1340	7
0	331494	1360	4
0	336747	1380	5
0	341928	1400	2
0	347229	1420	6
0	352580	1440	1
0	357858	1460	3
0	363260	1480	8
0	368546	1500	3
0	373836	1520	2
0	379159	1540	2
0	384368	1560	4
0	389723	1580	5
0	395025	1600	6
0	400391	1620	2
0	405712	1640	4
0	411108	1660	4
0	416323	1680	5
0	421583	1700	1
0	426847	1720	4
0	432160	1740	5
0	437440	1760	1
0	442792	1780	5
0	448127	1800	3
0	453048	1820	3
0	457340	1840	2
0	461108	1860	5
0	464407	1880	2
0	467355	1900	4
0	469844	1920	2
0	471903	1940	2
0	473455	1960	1
0	474508	1980	2
0	475063	2000	1
1	34167	240	6
1	39656	260	5
1	45001	280	4
1	50257	300	4
1	55649	320	7
1	60968	340	9
1	66245	360	11
1	71608	380	4
1	76955	400	3
1	82304	420	6
1	87583	440	2
1	92832	460	6
1	98157	480	3
1	103538	500	8
1	108839	520	3
1	114268	540	9
1	119555	560	11
1	124841	580	10
1	130120	600	8
1	135483	620	3
1	140755	640	8
1	146059	660	10
1	151437	680	5
1	156720	700	4
1	161940	720	8
1	167198	740	6
1	172503	760	5
1	177785	780	8
1	183104	800	6
1	188469	820	5
1	193666	840	5
1	198983	860	6
1	204412	880	5
1	209619	900	2
1	214863	920	4
1	220216	940	0
1	225500	960	4
1	230788	980	8
1	236214	1000	10
1	241638	1020	5
1	246942	1040	6
1	252194	1060	3
1	257570	1080	4
1	262854	1100	3
1	268070	1120	10
1	273338	1140	5
1	278657	1160	5
1	284000	1180	5
1	289378	1200	9
1	294674	1220	1
1	299999	1240	5
1	305188	1260	6
1	310434	1280	2
1	315723	1300	5
1	321013	1320	4
1	326223	1340	11
1	331494	1360	5
1	336747	1380	8
1	341928	1400	2
1	347229	1420	7
1	352580	1440	2
1	357858	1460	6
1	363260	1480	10
1	368546	1500	4
1	373836	1520	3
1	379159	1540	3
1	384368	1560	4
1	389723	1580	5
1	395025	1600	6
1	400391	1620	2
1	405712	1640	5
1	411108	1660	5
1	416323	1680	7
1	421583	1700	1
1	426847	1720	5
1	432160	1740	7
1	437440	1760	2
1	442792	1780	8
1	448127	1800	6
1	453048	1820	3
1	457340	1840	2
1	461108	1860	7
1	464407	1880	3
1	467355	1900	7
1	469844	1920	4
1	471903	1940	3
1	473455	1960	1
1	474508	1980	3
1	475063	2000	2
2	34167	240	28
2	39656	260	32
2	45001	280	34
2	50257	300	33
2	55649	320	30
2	60968	340	27
2	66245	360	22
2	71608	380	34
2	76955	400	34
2	82304	420	30
2	87583	440	37
2	92832	460	29
2	98157	480	34
2	103538	500	29
2	108839	520	36
2	114268	540	25
2	119555	560	21
2	124841	580	25
2	130120	600	27
2	135483	620	36
2	140755	640	26
2	146059	660	24
2	151437	680	31
2	156720	700	33
2	161940	720	26
2	167198	740	30
2	172503	760	32
2	177785	780	25
2	183104	800	32
2	188469	820	32
2	193666	840	30
2	198983	860	31
2	204412	880	33
2	209619	900	38
2	214863	920	33
2	220216	940	40
2	225500	960	32
2	230788	980	25
2	236214	1000	24
2	241638	1020	32
2	246942	1040	29
2	252194	1060	35
2	257570	1080	34
2	262854	1100	34
2	268070	1120	22
2	273338	1140	30
2	278657	1160	31
2	284000	1180	31
2	289378	1200	25
2	294674	1220	39
2	299999	1240	32
2	305188	1260	29
2	310434	1280	35
2	315723	1300	32
2	321013	1320	33
2	326223	1340	21
2	331494	1360	32
2	336747	1380	26
2	341928	1400	37
2	347229	1420	27
2	352580	1440	38
2	357858	1460	30
2	363260	1480	22
2	368546	1500	32
2	373836	1520	35
2	379159	1540	36
2	384368	1560	31
2	389723	1580	30
2	395025	1600	30
2	400391	1620	37
2	405712	1640	31
2	411108	1660	31
2	416323	1680	28
2	421583	1700	38
2	426847	1720	30
2	432160	1740	27
2	437440	1760	38
2	442792	1780	27
2	448127	1800	30
2	453048	1820	31
2	457340	1840	30
2	461108	1860	18
2	464407	1880	23
2	467355	1900	12
2	469844	1920	14
2	471903	1940	13
2	473455	1960	12
2	474508	1980	5
2	475063	2000	5
3	34167	240	4
3	39656	260	4
3	45001	280	1
3	50257	300	1
3	55649	320	1
3	60968	340	0
3	66245	360	2
3	71608	380	2
3	76955	400	1
3	82304	420	1
3	87583	440	1
3	92832	460	1
3	98157	480	2
3	103538	500	0
3	108839	520	0
3	114268	540	4
3	119555	560	1
3	124841	580	0
3	130120	600	2
3	135483	620	1
3	140755	640	0
3	146059	660	0
3	151437	680	3
3	156720	700	0
3	161940	720	1
3	167198	740	1
3	172503	760	0
3	177785	780	0
3	183104	800	1
3	188469	820	3
3	193666	840	1
3	198983	860	2
3	204412	880	0
3	209619	900	2
3	214863	920	2
3	220216	940	1
3	225500	960	1
3	230788	980	2
3	236214	1000	1
3	241638	1020	1
3	246942	1040	3
3	252194	1060	0
3	257570	1080	1
3	262854	1100	0
3	268070	1120	1
3	273338	1140	1
3	278657	1160	1
3	284000	1180	1
3	289378	1200	1
3	294674	1220	2
3	299999	1240	1
3	305188	1260	3
3	310434	1280	2
3	315723	1300	1
3	321013	1320	2
3	326223	1340	0
3	331494	1360	1
3	336747	1380	1
3	341928	1400	0
3	347229	1420	1
3	352580	1440	3
3	357858	1460	1
3	363260	1480	1
3	368546	1500	0
3	373836	1520	0
3	379159	1540	0
3	384368	1560	0
3	389723	1580	1
3	395025	1600	0
3	400391	1620	0
3	405712	1640	2
3	411108	1660	0
3	416323	1680	1
3	421583	1700	1
3	426847	1720	1
3	432160	1740	1
3	437440	1760	0
3	442792	1780	2
3	448127	1800	2
3	453048	1820	0
3	457340	1840	1
3	461108	1860	0
3	464407	1880	1
3	467355	1900	0
3	469844	1920	1
3	471903	1940	0
3	473455	1960	0
3	474508	1980	0
3	475063	2000	0
4	34167	240	1.2
4	39656	260	1.25
4	45001	280	1.3333333333333
4	50257	300	1.3333333333333
4	55649	320	1.75
4	60968	340	1.5
4	66245	360	1.5714285714286
4	71608	380	1.3333333333333
4	76955	400	1.5
4	82304	420	1.2
4	87583	440	2
4	92832	460	1.2
4	98157	480	1
4	103538	500	1.6
4	108839	520	1.5
4	114268	540	1.2857142857143
4	119555	560	1.375
4	124841	580	1.6666666666667
4	130120	600	1.3333333333333
4	135483	620	1.5
4	140755	640	1.3333333333333
4	146059	660	1.4285714285714
4	151437	680	1.25
4	156720	700	1.3333333333333
4	161940	720	1.3333333333333
4	167198	740	1.5
4	172503	760	1.25
4	177785	780	1.1428571428571
4	183104	800	1.5
4	188469	820	1.6666666666667
4	193666	840	1.25
4	198983	860	2
4	204412	880	1.6666666666667
4	209619	900	2
4	214863	920	1
4	220216	940	nan
4	225500	960	1
4	230788	980	1.1428571428571
4	236214	1000	1.4285714285714
4	241638	1020	1.6666666666667
4	246942	1040	1.5
4	252194	1060	1.5
4	257570	1080	1.3333333333333
4	262854	1100	1.5
4	268070	1120	1.25
4	273338	1140	1
4	278657	1160	1.25
4	284000	1180	1.25
4	289378	1200	1.2857142857143
4	294674	1220	1
4	299999	1240	1.25
4	305188	1260	1.2
4	310434	1280	1
4	315723	1300	1.25
4	321013	1320	1.3333333333333
4	326223	1340	1.5714285714286
4	331494	1360	1.25
4	336747	1380	1.6
4	341928	1400	1
4	347229	1420	1.1666666666667
4	352580	1440	2
4	357858	1460	2
4	363260	1480	1.25
4	368546	1500	1.3333333333333
4	373836	1520	1.5
4	379159	1540	1.5
4	384368	1560	1
4	389723	1580	1
4	395025	1600	1
4	400391	1620	1
4	405712	1640	1.25
4	411108	1660	1.25
4	416323	1680	1.4
4	421583	1700	1
4	426847	1720	1.25
4	432160	1740	1.4
4	437440	1760	2
4	442792	1780	1.6
4	448127	1800	2
4	453048	1820	1
4	457340	1840	1
4	461108	1860	1.4
4	464407	1880	1.5
4	467355	1900	1.75
4	469844	1920	2
4	471903	1940	1.5
4	473455	1960	1
4	474508	1980	1.5
4	475063	2000	2
5	34167	240	0.44721359549996
5	39656	260	0.5
5	45001	280	0.57735026918963
5	50257	300	0.57735026918963
5	55649	320	0.5
5	60968	340	0.54772255750517
5	66245	360	0.53452248382485
5	71608	380	0.57735026918963
5	76955	400	0.70710678118655
5	82304	420	0.44721359549996
5	87583	440	nan
5	92832	460	0.44721359549996
5	98157	480	0
5	103538	500	0.54772255750517
5	108839	520	0.70710678118655
5	114268	540	0.48795003647427
5	119555	560	0.51754916950677
5	124841	580	0.51639777949432
5	130120	600	0.51639777949432
5	135483	620	0.70710678118655
5	140755	640	0.51639777949432
5	146059	660	0.53452248382485
5	151437	680	0.5
5	156720	700	0.57735026918963
5	161940	720	0.51639777949432
5	167198	740	0.57735026918963
5	172503	760	0.5
5	177785	780	0.37796447300923
5	183104	800	0.57735026918963
5	188469	820	0.57735026918963
5	193666	840	0.5
5	198983	860	0
5	204412	880	0.57735026918963
5	209619	900	nan
5	214863	920	0
5	220216	940	nan
5	225500	960	0
5	230788	980	0.37796447300923
5	236214	1000	0.53452248382485
5	241638	1020	0.57735026918963
5	246942	1040	0.57735026918963
5	252194	1060	0.70710678118655
5	257570	1080	0.57735026918963
5	262854	1100	0.70710678118655
5	268070	1120	0.46291004988628
5	273338	1140	0
5	278657	1160	0.5
5	284000	1180	0.5
5	289378	1200	0.48795003647427
5	294674	1220	nan
5	299999	1240	0.5
5	305188	1260	0.44721359549996
5	310434	1280	0
5	315723	1300	0.5
5	321013	1320	0.57735026918963
5	326223	1340	0.53452248382485
5	331494	1360	0.5
5	336747	1380	0.54772255750517
5	341928	1400	0
5	347229	1420	0.40824829046386
5	352580	1440	nan
5	357858	1460	0
5	363260	1480	0.46291004988628
5	368546	1500	0.57735026918963
5	373836	1520	0.70710678118655
5	379159	1540	0.70710678118655
5	384368	1560	0
5	389723	1580	0
5	395025	1600	0
5	400391	1620	0
5	405712	1640	0.5
5	411108	1660	0.5
5	416323	1680	0.54772255750517
5	421583	1700	nan
5	426847	1720	0.5
5	432160	1740	0.54772255750517
5	437440	1760	nan
5	442792	1780	0.54772255750517
5	448127	1800	0
5	453048	1820	0
5	457340	1840	0
5	461108	1860	0.54772255750517
5	464407	1880	0.70710678118655
5	467355	1900	0.5
5	469844	1920	0
5	471903	1940	0.70710678118655
5	473455	1960	nan
5	474508	1980	0.70710678118655
5	475063	2000	nan
6	34167	240	0.2
6	39656	260	0.25
6	45001	280	0.33333333333333
6	50257	300	0.33333333333333
6	55649	320	0.25
6	60968	340	0.3
6	66245	360	0.28571428571429
6	71608	380	0.33333333333333
6	76955	400	0.5
6	82304	420	0.2
6	87583	440	nan
6	92832	460	0.2
6	98157	480	0
6	103538	500	0.3
6	108839	520	0.5
6	114268	540	0.23809523809524
6	119555	560	0.26785714285714
6	124841	580	0.26666666666667
6	130120	600	0.26666666666667
6	135483	620	0.5
6	140755	640	0.26666666666667
6	146059	660	0.28571428571429
6	151437	680	0.25
6	156720	700	0.33333333333333
6	161940	720	0.26666666666667
6	167198	740	0.33333333333333
6	172503	760	0.25
6	177785	780	0.14285714285714
6	183104	800	0.33333333333333
6	188469	820	0.33333333333333
6	193666	840	0.25
6	198983	860	0
6	204412	880	0.33333333333333
6	209619	900	nan
6	214863	920	0
6	220216	940	nan
6	225500	960	0
6	230788	980	0.14285714285714
6	236214	1000	0.28571428571429
6	241638	1020	0.33333333333333
6	246942	1040	0.33333333333333
6	252194	1060	0.5
6	257570	1080	0.33333333333333
6	262854	1100	0.5
6	268070	1120	0.21428571428571
6	273338	1140	0
6	278657	1160	0.25
6	284000	1180	0.25
6	289378	1200	0.23809523809524
6	294674	1220	nan
6	299999	1240	0.25
6	305188	1260	0.2
6	310434	1280	0
6	315723	1300	0.25
6	321013	1320	0.33333333333333
6	326223	1340	0.28571428571429
6	331494	1360	0.25
6	336747	1380	0.3
6	341928	1400	0
6	347229	1420	0.16666666666667
6	352580	1440	nan
6	357858	1460	0
6	363260	1480	0.21428571428571
6	368546	1500	0.33333333333333
6	373836	1520	0.5
6	379159	1540	0.5
6	384368	1560	0
6	389723	1580	0
6	395025	1600	0
6	400391	1620	0
6	405712	1640	0.25
6	411108	1660	0.25
6	416323	1680	0.3
6	421583	1700	nan
6	426847	1720	0.25
6	432160	1740	0.3
6	437440	1760	nan
6	442792	1780	0.3
6	448127	1800	0
6	453048	1820	0
6	457340	1840	0
6	461108	1860	0.3
6	464407	1880	0.5
6	467355	1900	0.25
6	469844	1920	0
6	471903	1940	0.5
6	473455	1960	nan
6	474508	1980	0.5
6	475063	2000	nan
7	34167	240	8.8461538461538
7	39656	260	8.9756097560976
7	45001	280	9.25
7	50257	300	9.125
7	55649	320	9.25
7	60968	340	8.7142857142857
7	66245	360	8.85
7	71608	380	8.8536585365854
7	76955	400	9.025641025641
7	82304	420	9
7	87583	440	8.95
7	92832	460	9.1794871794872
7	98157	480	9.1
7	103538	500	8.8333333333333
7	108839	520	8.925
7	114268	540	9.0975609756098
7	119555	560	9.075
7	124841	580	8.8536585365854
7	130120	600	9.1
7	135483	620	9.1951219512195
7	140755	640	8.925
7	146059	660	8.9024390243902
7	151437	680	9.05
7	156720	700	8.775
7	161940	720	8.775
7	167198	740	8.6
7	172503	760	9.125
7	177785	780	9.1
7	183104	800	8.8780487804878
7	188469	820	9.15
7	193666	840	9.1025641025641
7	198983	860	8.8
7	204412	880	9.075
7	209619	900	8.8780487804878
7	214863	920	9.05
7	220216	940	8.825
7	225500	960	9.05
7	230788	980	8.95
7	236214	1000	8.9756097560976
7	241638	1020	9.125
7	246942	1040	9.2051282051282
7	252194	1060	8.95
7	257570	1080	8.8536585365854
7	262854	1100	9.025641025641
7	268070	1120	8.775
7	273338	1140	8.775
7	278657	1160	8.975
7	284000	1180	8.95
7	289378	1200	8.9512195121951
7	294674	1220	9.2
7	299999	1240	8.9512195121951
7	305188	1260	9.1538461538462
7	310434	1280	8.8974358974359
7	315723	1300	8.8048780487805
7	321013	1320	8.8
7	326223	1340	8.9487179487179
7	331494	1360	8.5365853658537
7	336747	1380	8.8717948717949
7	341928	1400	8.8
7	347229	1420	9.2051282051282
7	352580	1440	8.9756097560976
7	357858	1460	9.2051282051282
7	363260	1480	9.1025641025641
7	368546	1500	9.025641025641
7	373836	1520	8.75
7	379159	1540	8.7073170731707
7	384368	1560	9.0512820512821
7	389723	1580	9
7	395025	1600	8.7142857142857
7	400391	1620	8.95
7	405712	1640	8.95
7	411108	1660	9.025
7	416323	1680	8.825
7	421583	1700	8.9
7	426847	1720	8.974358974359
7	432160	1740	8.974358974359
7	437440	1760	8.7073170731707
7	442792	1780	9.075
7	448127	1800	9.1538461538462
7	453048	1820	9
7	457340	1840	8.3529411764706
7	461108	1860	8.3
7	464407	1880	8.3571428571429
7	467355	1900	7.8260869565217
7	469844	1920	8.5
7	471903	1940	7.8333333333333
7	473455	1960	7.1428571428571
7	474508	1980	6.1
7	475063	2000	5.375
8	34167	240	1.4962841965219
8	39656	260	1.8505108062107
8	45001	280	1.391365313603
8	50257	300	1.4176090379986
8	55649	320	1.6290629680421
8	60968	340	1.7430798966578
8	66245	360	1.6725537053966
8	71608	380	2.068344454023
8	76955	400	1.5974845273475
8	82304	420	1.6881943016134
8	87583	440	1.9993588715976
8	92832	460	1.5538033959457
8	98157	480	1.97159313429
8	103538	500	2.1966345285533
8	108839	520	2.0303782646187
8	114268	540	1.5460413650479
8	119555	560	1.9662211577098
8	124841	580	1.8379468927278
8	130120	600	1.7511900715418
8	135483	620	1.5846058215708
8	140755	640	1.8589699381026
8	146059	660	1.8139029473594
8	151437	680	1.5012815038647
8	156720	700	1.7612277186449
8	161940	720	1.4586171884919
8	167198	740	1.691608247065
8	172503	760	2.0151668506348
8	177785	780	1.8088103471052
8	183104	800	2.1586468209415
8	188469	820	1.8194110064129
8	193666	840	1.2730996528339
8	198983	860	1.9108328161517
8	204412	880	1.8029534174906
8	209619	900	1.7634500553066
8	214863	920	1.5681117176319
8	220216	940	2.0986870132269
8	225500	960	2.1477477768166
8	230788	980	1.738699779455
8	236214	1000	1.968347084206
8	241638	1020	2.1977552650667
8	246942	1040	1.2178386199261
8	252194	1060	1.3387709633495
8	257570	1080	2.1512900270507
8	262854	1100	1.5974845273475
8	268070	1120	1.5605308104156
8	273338	1140	1.6868647902286
8	278657	1160	1.6249260338196
8	284000	1180	1.4133067244713
8	289378	1200	1.6575768385236
8	294674	1220	1.7423826892785
8	299999	1240	2.0850805681339
8	305188	1260	1.3286015904833
8	310434	1280	1.2936051580731
8	315723	1300	1.4869349715963
8	321013	1320	1.3048233989947
8	326223	1340	1.356247104265
8	331494	1360	1.8986516396592
8	336747	1380	1.7041665223101
8	341928	1400	1.9108328161517
8	347229	1420	1.6886538889942
8	352580	1440	2.0060882941442
8	357858	1460	1.4542041987121
8	363260	1480	1.586038955433
8	368546	1500	1.2873305608931
8	373836	1520	1.8912755158683
8	379159	1540	2.2050385760687
8	384368	1560	1.3367028947675
8	389723	1580	1.7686732677929
8	395025	1600	2.4020896825901
8	400391	1620	2.074880286939
8	405712	1640	1.5681117176319
8	411108	1660	1.3679012559954
8	416323	1680	1.6312257464549
8	421583	1700	1.3358949751441
8	426847	1720	2.1087184869536
8	432160	1740	1.6778303578883
8	437440	1760	1.9005775758835
8	442792	1780	1.6074745282506
8	448127	1800	2.0201414950243
8	453048	1820	1.2909944487358
8	457340	1840	1.5152228147217
8	461108	1860	1.4890404223225
8	464407	1880	1.768328059774
8	467355	1900	1.9691293395131
8	469844	1920	1.6383560438183
8	471903	1940	1.757337558387
8	473455	1960	1.4064216928155
8	474508	1980	0.73786478737262
8	475063	2000	0.74402380914284
9	34167	240	2.2388663967611
9	39656	260	3.4243902439024
9	45001	280	1.9358974358974
9	50257	300	2.0096153846154
9	55649	320	2.6538461538462
9	60968	340	3.0383275261324
9	66245	360	2.7974358974359
9	71608	380	4.2780487804878
9	76955	400	2.5519568151147
9	82304	420	2.85
9	87583	440	3.9974358974359
9	92832	460	2.4143049932524
9	98157	480	3.8871794871795
9	103538	500	4.8252032520325
9	108839	520	4.1224358974359
9	114268	540	2.390243902439
9	119555	560	3.8660256410256
9	124841	580	3.3780487804878
9	130120	600	3.0666666666667
9	135483	620	2.5109756097561
9	140755	640	3.4557692307692
9	146059	660	3.290243902439
9	151437	680	2.2538461538462
9	156720	700	3.1019230769231
9	161940	720	2.1275641025641
9	167198	740	2.8615384615385
9	172503	760	4.0608974358974
9	177785	780	3.2717948717949
9	183104	800	4.659756097561
9	188469	820	3.3102564102564
9	193666	840	1.6207827260459
9	198983	860	3.6512820512821
9	204412	880	3.250641025641
9	209619	900	3.109756097561
9	214863	920	2.4589743589744
9	220216	940	4.4044871794872
9	225500	960	4.6128205128205
9	230788	980	3.0230769230769
9	236214	1000	3.8743902439024
9	241638	1020	4.8301282051282
9	246942	1040	1.4831309041835
9	252194	1060	1.7923076923077
9	257570	1080	4.6280487804878
9	262854	1100	2.5519568151147
9	268070	1120	2.4352564102564
9	273338	1140	2.8455128205128
9	278657	1160	2.6403846153846
9	284000	1180	1.9974358974359
9	289378	1200	2.7475609756098
9	294674	1220	3.0358974358974
9	299999	1240	4.3475609756098
9	305188	1260	1.7651821862348
9	310434	1280	1.6734143049933
9	315723	1300	2.2109756097561
9	321013	1320	1.7025641025641
9	326223	1340	1.8394062078273
9	331494	1360	3.6048780487805
9	336747	1380	2.9041835357625
9	341928	1400	3.6512820512821
9	347229	1420	2.8515519568151
9	352580	1440	4.0243902439024
9	357858	1460	2.114709851552
9	363260	1480	2.5155195681511
9	368546	1500	1.6572199730094
9	373836	1520	3.5769230769231
9	379159	1540	4.8621951219512
9	384368	1560	1.7867746288799
9	389723	1580	3.1282051282051
9	395025	1600	5.7700348432056
9	400391	1620	4.3051282051282
9	405712	1640	2.4589743589744
9	411108	1660	1.8711538461538
9	416323	1680	2.6608974358974
9	421583	1700	1.7846153846154
9	426847	1720	4.44669365722
9	432160	1740	2.8151147098516
9	437440	1760	3.6121951219512
9	442792	1780	2.5839743589744
9	448127	1800	4.080971659919
9	453048	1820	1.6666666666667
9	457340	1840	2.2959001782531
9	461108	1860	2.2172413793103
9	464407	1880	3.1269841269841
9	467355	1900	3.8774703557312
9	469844	1920	2.6842105263158
9	471903	1940	3.0882352941176
9	473455	1960	1.978021978022
9	474508	1980	0.54444444444444
9	475063	2000	0.55357142857143
10	34167	240	231.43775149975
10	39656	260	185.50916210821
10	45001	280	136.50911070282
10	50257	300	138.08841364275
10	55649	320	186.85989126294
10	60968	340	280.36080200825
10	66245	360	324.00222640647
10	71608	380	142.77311252611
10	76955	400	93.577849712704
10	82304	420	241.59404814464
10	87583	440	47.630030542886
10	92832	460	231.7435909195
10	98157	480	138.09307625178
10	103538	500	231.17123955043
10	108839	520	93.407658850564
10	114268	540	330.08371217683
10	119555	560	365.33880130668
10	124841	580	276.82117172756
10	130120	600	278.07055973963
10	135483	620	98.997502130833
10	140755	640	278.22820788262
10	146059	660	326.46503625297
10	151437	680	187.35068909182
10	156720	700	138.38043905137
10	161940	720	282.46691316818
10	167198	740	194.00329507728
10	172503	760	183.48340010733
10	177785	780	336.01521478739
10	183104	800	185.53494582594
10	188469	820	141.76238388109
10	193666	840	186.4367854171
10	198983	860	140.11541568838
10	204412	880	141.6700433906
10	209619	900	47.309931845459
10	214863	920	186.82870682477
10	220216	940	0
10	225500	960	187.69510065993
10	230788	980	326.92224579502
10	236214	1000	321.53707221357
10	241638	1020	139.6985033098
10	246942	1040	190.7929817529
10	252194	1060	94.201086129608
10	257570	1080	140.40756393639
10	262854	1100	92.929723981952
10	268070	1120	380.33808400397
10	273338	1140	233.99831194313
10	278657	1160	190.85340337409
10	284000	1180	191.47777804882
10	289378	1200	325.39102476877
10	294674	1220	45.176410206083
10	299999	1240	189.19337234472
10	305188	1260	235.94594594279
10	310434	1280	94.897641494409
10	315723	1300	189.37397754811
10	321013	1320	148.84249383757
10	326223	1340	331.83898044142
10	331494	1360	192.38684718314
10	336747	1380	239.5130904134
10	341928	1400	94.828101992463
10	347229	1420	284.69266441375
10	352580	1440	46.892108190206
10	357858	1460	141.89031384166
10	363260	1480	372.47136775092
10	368546	1500	139.00205650432
10	373836	1520	91.144060753842
10	379159	1540	92.936824244016
10	384368	1560	191.02785136618
10	389723	1580	236.24576953332
10	395025	1600	283.84320918833
10	400391	1620	91.680800851718
10	405712	1640	189.00936729352
10	411108	1660	186.6366722545
10	416323	1680	232.55841287967
10	421583	1700	46.019716143055
10	426847	1720	184.75337107305
10	432160	1740	230.69734924667
10	437440	1760	45.028309782124
10	442792	1780	235.28133795218
10	448127	1800	140.83134984437
10	453048	1820	138.89456539141
10	457340	1840	91.426930765337
10	461108	1860	233.52843332476
10	464407	1880	93.910227407451
10	467355	1900	185.13990065493
10	469844	1920	93.862192972932
10	471903	1940	96.008800383142
10	473455	1960	47.221909791608
10	474508	1980	99.026549967855
10	475063	2000	43.901070920236
11	34167	240	46.287550299951
11	39656	260	46.377290527052
11	45001	280	45.503036900941
11	50257	300	46.02947121425
11	55649	320	46.714972815734
11	60968	340	46.726800334709
11	66245	360	46.286032343781
11	71608	380	47.591037508703
11	76955	400	46.788924856352
11	82304	420	48.318809628928
11	87583	440	47.630030542886
11	92832	460	46.348718183899
11	98157	480	46.03102541726
11	103538	500	46.234247910085
11	108839	520	46.703829425282
11	114268	540	47.154816025261
11	119555	560	45.667350163335
11	124841	580	46.136861954593
11	130120	600	46.345093289938
11	135483	620	49.498751065416
11	140755	640	46.371367980437
11	146059	660	46.637862321853
11	151437	680	46.837672272955
11	156720	700	46.126813017124
11	161940	720	47.077818861364
11	167198	740	48.50082376932
11	172503	760	45.870850026834
11	177785	780	48.002173541056
11	183104	800	46.383736456484
11	188469	820	47.254127960363
11	193666	840	46.609196354275
11	198983	860	46.705138562794
11	204412	880	47.223347796868
11	209619	900	47.309931845459
11	214863	920	46.707176706192
11	220216	940	nan
11	225500	960	46.923775164983
11	230788	980	46.703177970717
11	236214	1000	45.933867459081
11	241638	1020	46.566167769935
11	246942	1040	47.698245438224
11	252194	1060	47.100543064804
11	257570	1080	46.80252131213
11	262854	1100	46.464861990976
11	268070	1120	47.542260500496
11	273338	1140	46.799662388627
11	278657	1160	47.713350843522
11	284000	1180	47.869444512204
11	289378	1200	46.484432109825
11	294674	1220	45.176410206083
11	299999	1240	47.298343086179
11	305188	1260	47.189189188558
11	310434	1280	47.448820747204
11	315723	1300	47.343494387028
11	321013	1320	49.614164612524
11	326223	1340	47.405568634489
11	331494	1360	48.096711795786
11	336747	1380	47.90261808268
11	341928	1400	47.414050996231
11	347229	1420	47.448777402292
11	352580	1440	46.892108190206
11	357858	1460	47.296771280553
11	363260	1480	46.558920968865
11	368546	1500	46.334018834774
11	373836	1520	45.572030376921
11	379159	1540	46.468412122008
11	384368	1560	47.756962841545
11	389723	1580	47.249153906665
11	395025	1600	47.307201531388
11	400391	1620	45.840400425859
11	405712	1640	47.252341823379
11	411108	1660	46.659168063625
11	416323	1680	46.511682575935
11	421583	1700	46.019716143055
11	426847	1720	46.188342768263
11	432160	1740	46.139469849334
11	437440	1760	45.028309782124
11	442792	1780	47.056267590437
11	448127	1800	46.943783281456
11	453048	1820	46.298188463804
11	457340	1840	45.713465382668
11	461108	1860	46.705686664953
11	464407	1880	46.955113703725
11	467355	1900	46.284975163732
11	469844	1920	46.931096486466
11	471903	1940	48.004400191571
11	473455	1960	47.221909791608
11	474508	1980	49.513274983928
11	475063	2000	43.901070920236
12	34167	240	0.65985512027318
12	39656	260	1.7443970934435
12	45001	280	0.99389501665953
12	50257	300	1.2617611486333
12	55649	320	1.4453039333426
12	60968	340	1.5071237231316
12	66245	360	1.3362245986727
12	71608	380	1.3567380375343
12	76955	400	2.0920199334174
12	82304	420	1.5378437546303
12	87583	440	nan
12	92832	460	1.1731965258209
12	98157	480	1.0985486043026
12	103538	500	0.90440530697053
12	108839	520	2.5060126666408
12	114268	540	2.424498349025
12	119555	560	0.60413222607572
12	124841	580	1.2407358353944
12	130120	600	1.654854691553
12	135483	620	0.65751003631078
12	140755	640	0.69052093924121
12	146059	660	2.2066244916889
12	151437	680	1.6040197700394
12	156720	700	0.54517163002801
12	161940	720	1.8741030249912
12	167198	740	4.1734881392689
12	172503	760	1.4705460722612
12	177785	780	3.465465190428
12	183104	800	1.1706819902511
12	188469	820	0.55438069442489
12	193666	840	0.70702039024722
12	198983	860	0.50994041318922
12	204412	880	1.4505735878311
12	209619	900	nan
12	214863	920	2.3707006047302
12	220216	940	nan
12	225500	960	0.76859466549213
12	230788	980	2.1414669713333
12	236214	1000	2.7557693393032
12	241638	1020	1.8006318319651
12	246942	1040	0.96097762279873
12	252194	1060	1.7954887643996
12	257570	1080	2.2548707341816
12	262854	1100	1.1017675906571
12	268070	1120	1.5666745137259
12	273338	1140	1.7719815330095
12	278657	1160	0.94647477143509
12	284000	1180	1.9627313518278
12	289378	1200	1.3603465307866
12	294674	1220	nan
12	299999	1240	2.0375804921313
12	305188	1260	2.5309097057565
12	310434	1280	2.8707875884489
12	315723	1300	2.1179327582208
12	321013	1320	2.3320338585703
12	326223	1340	2.0684052074
12	331494	1360	1.6231989353708
12	336747	1380	2.2112156814378
12	341928	1400	0.67570517508805
12	347229	1420	2.7019163312258
12	352580	1440	nan
12	357858	1460	0.9556457008399
12	363260	1480	1.4338186791819
12	368546	1500	1.5941976113473
12	373836	1520	0.35581019282153
12	379159	1540	0.35882176665218
12	384368	1560	1.6298613065266
12	389723	1580	1.9515838818854
12	395025	1600	1.5146496102098
12	400391	1620	0.74028282353883
12	405712	1640	3.0991271234495
12	411108	1660	1.9471426704384
12	416323	1680	1.7964891906212
12	421583	1700	nan
12	426847	1720	0.59747527921677
12	432160	1740	0.80085267463582
12	437440	1760	nan
12	442792	1780	1.9604682695918
12	448127	1800	0.55780785722996
12	453048	1820	1.0934816453542
12	457340	1840	1.2385838522397
12	461108	1860	0.61709511192677
12	464407	1880	0.47285151729153
12	467355	1900	1.4985714779964
12	469844	1920	1.6072303893449
12	471903	1940	0.69653971553759
12	473455	1960	nan
12	474508	1980	1.443132464001
12	475063	2000	nan
13	34167	240	0.43540877975073
13	39656	260	3.0429212196143
13	45001	280	0.98782730414064
13	50257	300	1.5920411962003
13	55649	320	2.0889034597356
13	60968	340	2.271421916826
13	66245	360	1.7854961780981
13	71608	380	1.8407381024923
13	76955	400	4.3765474018157
13	82304	420	2.3649634136553
13	87583	440	nan
13	92832	460	1.3763900881983
13	98157	480	1.2068090360152
13	103538	500	0.81794895927645
13	108839	520	6.2800994853641
13	114268	540	5.8781922444249
13	119555	560	0.3649757465832
13	124841	580	1.5394254132319
13	130120	600	2.738544050155
13	135483	620	0.43231944784941
13	140755	640	0.47681916753056
13	146059	660	4.8691916473215
13	151437	680	2.5728794226773
13	156720	700	0.29721210618739
13	161940	720	3.5122621482813
13	167198	740	17.418003248618
13	172503	760	2.1625057506429
13	177785	780	12.009448986068
13	183104	800	1.3704963222982
13	188469	820	0.30733795435102
13	193666	840	0.49987783222533