version 2
run statisticRVV-180-20150325-21:41:51-23752
attr c 7
attr configname statisticRVV
attr datetime 20150325-21:41:51
attr experiment statisticRVV
attr inifile omnetpp.ini
attr iterationvars "$sc=\"erlangen-medium.launchd.xml\", $p=1/8, $c=7"
attr iterationvars2 "$sc=\"erlangen-medium.launchd.xml\", $p=1/8, $c=7, $repetition=0"
attr measurement "$sc=\"erlangen-medium.launchd.xml\", $p=1/8, $c=7"
attr network RSUExampleScenario
attr p 1/8
attr processid 23752
attr repetition 0
attr replication #0
attr resultdir results
attr runnumber 180
attr sc "\"erlangen-medium.launchd.xml\""
attr seedset 180

vector 0  RSUExampleScenario.rsu[0].appl  Number_CH  ETV
vector 1  RSUExampleScenario.rsu[0].appl  Number_ON  ETV
vector 2  RSUExampleScenario.rsu[0].appl  Number_FN  ETV
vector 3  RSUExampleScenario.rsu[0].appl  Number_CH_Losts  ETV
vector 4  RSUExampleScenario.rsu[0].appl  Mean_Cluster_Size  ETV
vector 5  RSUExampleScenario.rsu[0].appl  StdDev_Cluster_Size  ETV
vector 6  RSUExampleScenario.rsu[0].appl  Variance_Cluster_Size  ETV
vector 7  RSUExampleScenario.rsu[0].appl  Mean_Neighbors  ETV
vector 8  RSUExampleScenario.rsu[0].appl  StdDev_Neighbors  ETV
vector 9  RSUExampleScenario.rsu[0].appl  Variance_Neighbors  ETV
vector 10  RSUExampleScenario.rsu[0].appl  Total_CH_Utility  ETV
vector 11  RSUExampleScenario.rsu[0].appl  Mean_CH_Utility  ETV
vector 12  RSUExampleScenario.rsu[0].appl  StdDev_CH_Utility  ETV
vector 13  RSUExampleScenario.rsu[0].appl  Variance_CH_Utility  ETV
vector 14  RSUExampleScenario.rsu[0].appl  Total_exp_CH_Utility  ETV
vector 15  RSUExampleScenario.rsu[0].appl  Mean_exp_CH_Utility  ETV
vector 16  RSUExampleScenario.rsu[0].appl  StdDev_exp_CH_Utility  ETV
vector 17  RSUExampleScenario.rsu[0].appl  Variance_exp_CH_Utility  ETV
vector 18  RSUExampleScenario.rsu[0].appl  Total_ON_Utility  ETV
vector 19  RSUExampleScenario.rsu[0].appl  Mean_ON_Utility  ETV
vector 20  RSUExampleScenario.rsu[0].appl  StdDev_ON_Utility  ETV
vector 21  RSUExampleScenario.rsu[0].appl  Variance_ON_Utility  ETV
vector 22  RSUExampleScenario.rsu[0].appl  Total_exp_ON_Utility  ETV
vector 23  RSUExampleScenario.rsu[0].appl  Mean_exp_ON_Utility  ETV
vector 24  RSUExampleScenario.rsu[0].appl  StdDev_exp_ON_Utility  ETV
vector 25  RSUExampleScenario.rsu[0].appl  Variance_exp_ON_Utility  ETV
0	145582	240	4
0	171241	260	7
0	198253	280	10
0	225426	300	10
0	252567	320	9
0	279804	340	13
0	307073	360	9
0	334266	380	13
0	361741	400	9
0	389233	420	11
0	416537	440	9
0	444429	460	5
0	472813	480	8
0	501674	500	9
0	530916	520	8
0	560825	540	6
0	591313	560	9
0	622448	580	16
0	653838	600	9
0	686068	620	12
0	719308	640	14
0	753306	660	11
0	788281	680	8
0	823926	700	12
0	860631	720	8
0	898697	740	8
0	938146	760	12
0	978732	780	7
0	1020067	800	11
0	1062841	820	12
0	1106746	840	13
0	1151286	860	13
0	1197588	880	11
0	1244814	900	20
0	1292996	920	13
0	1342740	940	10
0	1393820	960	13
0	1446385	980	15
0	1499673	1000	15
0	1554445	1020	14
0	1610188	1040	12
0	1667616	1060	14
0	1726805	1080	13
0	1787090	1100	10
0	1848913	1120	11
0	1911814	1140	11
0	1976627	1160	9
0	2043378	1180	16
0	2111489	1200	21
0	2181638	1220	12
0	2254240	1240	18
0	2328042	1260	14
0	2404478	1280	21
0	2482389	1300	18
0	2562494	1320	15
0	2643841	1340	17
0	2727459	1360	23
0	2812947	1380	18
0	2900486	1400	16
0	2990872	1420	12
0	3081974	1440	12
0	3175623	1460	16
0	3271907	1480	14
0	3369951	1500	8
0	3470404	1520	18
0	3572989	1540	10
0	3678878	1560	21
0	3787009	1580	22
0	3896508	1600	18
0	4008446	1620	22
0	4123560	1640	19
0	4239808	1660	15
0	4359058	1680	19
0	4481430	1700	15
0	4605997	1720	14
0	4731945	1740	13
0	4861531	1760	19
0	4993227	1780	17
0	5126432	1800	15
0	5262747	1820	19
0	5401123	1840	21
0	5541868	1860	25
0	5684648	1880	23
0	5830842	1900	17
0	5979267	1920	18
0	6129517	1940	26
0	6282633	1960	14
0	6437697	1980	18
0	6595613	2000	25
1	145582	240	4
1	171241	260	8
1	198253	280	11
1	225426	300	15
1	252567	320	12
1	279804	340	17
1	307073	360	11
1	334266	380	19
1	361741	400	10
1	389233	420	15
1	416537	440	17
1	444429	460	5
1	472813	480	14
1	501674	500	14
1	530916	520	10
1	560825	540	7
1	591313	560	13
1	622448	580	20
1	653838	600	14
1	686068	620	16
1	719308	640	23
1	753306	660	16
1	788281	680	11
1	823926	700	13
1	860631	720	12
1	898697	740	10
1	938146	760	14
1	978732	780	11
1	1020067	800	14
1	1062841	820	17
1	1106746	840	18
1	1151286	860	18
1	1197588	880	14
1	1244814	900	25
1	1292996	920	18
1	1342740	940	14
1	1393820	960	15
1	1446385	980	19
1	1499673	1000	21
1	1554445	1020	21
1	1610188	1040	21
1	1667616	1060	18
1	1726805	1080	19
1	1787090	1100	15
1	1848913	1120	16
1	1911814	1140	20
1	1976627	1160	14
1	2043378	1180	21
1	2111489	1200	33
1	2181638	1220	16
1	2254240	1240	26
1	2328042	1260	18
1	2404478	1280	32
1	2482389	1300	27
1	2562494	1320	22
1	2643841	1340	25
1	2727459	1360	34
1	2812947	1380	25
1	2900486	1400	23
1	2990872	1420	17
1	3081974	1440	21
1	3175623	1460	23
1	3271907	1480	21
1	3369951	1500	13
1	3470404	1520	27
1	3572989	1540	18
1	3678878	1560	31
1	3787009	1580	29
1	3896508	1600	25
1	4008446	1620	28
1	4123560	1640	28
1	4239808	1660	26
1	4359058	1680	28
1	4481430	1700	27
1	4605997	1720	21
1	4731945	1740	19
1	4861531	1760	28
1	4993227	1780	26
1	5126432	1800	22
1	5262747	1820	29
1	5401123	1840	29
1	5541868	1860	35
1	5684648	1880	30
1	5830842	1900	22
1	5979267	1920	21
1	6129517	1940	41
1	6282633	1960	22
1	6437697	1980	27
1	6595613	2000	38
2	145582	240	70
2	171241	260	70
2	198253	280	71
2	225426	300	70
2	252567	320	72
2	279804	340	64
2	307073	360	73
2	334266	380	61
2	361741	400	75
2	389233	420	67
2	416537	440	66
2	444429	460	85
2	472813	480	75
2	501674	500	73
2	530916	520	83
2	560825	540	87
2	591313	560	79
2	622448	580	67
2	653838	600	80
2	686068	620	77
2	719308	640	70
2	753306	660	80
2	788281	680	91
2	823926	700	85
2	860631	720	91
2	898697	740	94
2	938146	760	88
2	978732	780	99
2	1020067	800	91
2	1062841	820	89
2	1106746	840	87
2	1151286	860	88
2	1197588	880	95
2	1244814	900	77
2	1292996	920	93
2	1342740	940	100
2	1393820	960	99
2	1446385	980	94
2	1499673	1000	93
2	1554445	1020	96
2	1610188	1040	98
2	1667616	1060	100
2	1726805	1080	101
2	1787090	1100	109
2	1848913	1120	109
2	1911814	1140	105
2	1976627	1160	116
2	2043378	1180	105
2	2111489	1200	87
2	2181638	1220	115
2	2254240	1240	98
2	2328042	1260	113
2	2404478	1280	94
2	2482389	1300	102
2	2562494	1320	111
2	2643841	1340	107
2	2727459	1360	93
2	2812947	1380	110
2	2900486	1400	113
2	2990872	1420	125
2	3081974	1440	123
2	3175623	1460	118
2	3271907	1480	124
2	3369951	1500	139
2	3470404	1520	117
2	3572989	1540	135
2	3678878	1560	113
2	3787009	1580	115
2	3896508	1600	124
2	4008446	1620	116
2	4123560	1640	122
2	4239808	1660	129
2	4359058	1680	122
2	4481430	1700	131
2	4605997	1720	139
2	4731945	1740	142
2	4861531	1760	132
2	4993227	1780	137
2	5126432	1800	141
2	5262747	1820	131
2	5401123	1840	131
2	5541868	1860	122
2	5684648	1880	131
2	5830842	1900	146
2	5979267	1920	149
2	6129517	1940	121
2	6282633	1960	152
2	6437697	1980	144
2	6595613	2000	127
3	145582	240	4
3	171241	260	5
3	198253	280	5
3	225426	300	2
3	252567	320	4
3	279804	340	3
3	307073	360	0
3	334266	380	0
3	361741	400	3
3	389233	420	4
3	416537	440	3
3	444429	460	2
3	472813	480	1
3	501674	500	6
3	530916	520	3
3	560825	540	6
3	591313	560	4
3	622448	580	2
3	653838	600	2
3	686068	620	4
3	719308	640	5
3	753306	660	4
3	788281	680	2
3	823926	700	3
3	860631	720	1
3	898697	740	2
3	938146	760	2
3	978732	780	2
3	1020067	800	1
3	1062841	820	2
3	1106746	840	4
3	1151286	860	3
3	1197588	880	4
3	1244814	900	7
3	1292996	920	2
3	1342740	940	3
3	1393820	960	2
3	1446385	980	5
3	1499673	1000	7
3	1554445	1020	0
3	1610188	1040	1
3	1667616	1060	3
3	1726805	1080	4
3	1787090	1100	4
3	1848913	1120	3
3	1911814	1140	1
3	1976627	1160	6
3	2043378	1180	7
3	2111489	1200	3
3	2181638	1220	1
3	2254240	1240	6
3	2328042	1260	2
3	2404478	1280	0
3	2482389	1300	5
3	2562494	1320	1
3	2643841	1340	5
3	2727459	1360	3
3	2812947	1380	4
3	2900486	1400	1
3	2990872	1420	4
3	3081974	1440	5
3	3175623	1460	2
3	3271907	1480	4
3	3369951	1500	5
3	3470404	1520	7
3	3572989	1540	1
3	3678878	1560	3
3	3787009	1580	3
3	3896508	1600	3
3	4008446	1620	5
3	4123560	1640	7
3	4239808	1660	2
3	4359058	1680	2
3	4481430	1700	5
3	4605997	1720	7
3	4731945	1740	0
3	4861531	1760	6
3	4993227	1780	1
3	5126432	1800	6
3	5262747	1820	1
3	5401123	1840	2
3	5541868	1860	2
3	5684648	1880	1
3	5830842	1900	4
3	5979267	1920	7
3	6129517	1940	5
3	6282633	1960	4
3	6437697	1980	2
3	6595613	2000	6
4	145582	240	1
4	171241	260	1.1428571428571
4	198253	280	1.1
4	225426	300	1.5
4	252567	320	1.3333333333333
4	279804	340	1.3076923076923
4	307073	360	1.2222222222222
4	334266	380	1.4615384615385
4	361741	400	1.1111111111111
4	389233	420	1.3636363636364
4	416537	440	1.8888888888889
4	444429	460	1
4	472813	480	1.75
4	501674	500	1.5555555555556
4	530916	520	1.25
4	560825	540	1.1666666666667
4	591313	560	1.4444444444444
4	622448	580	1.25
4	653838	600	1.5555555555556
4	686068	620	1.3333333333333
4	719308	640	1.6428571428571
4	753306	660	1.4545454545455
4	788281	680	1.375
4	823926	700	1.0833333333333
4	860631	720	1.5
4	898697	740	1.25
4	938146	760	1.1666666666667
4	978732	780	1.5714285714286
4	1020067	800	1.2727272727273
4	1062841	820	1.4166666666667
4	1106746	840	1.3846153846154
4	1151286	860	1.3846153846154
4	1197588	880	1.2727272727273
4	1244814	900	1.25
4	1292996	920	1.3846153846154
4	1342740	940	1.4
4	1393820	960	1.1538461538462
4	1446385	980	1.2666666666667
4	1499673	1000	1.4
4	1554445	1020	1.5
4	1610188	1040	1.75
4	1667616	1060	1.2857142857143
4	1726805	1080	1.4615384615385
4	1787090	1100	1.5
4	1848913	1120	1.4545454545455
4	1911814	1140	1.8181818181818
4	1976627	1160	1.5555555555556
4	2043378	1180	1.3125
4	2111489	1200	1.5714285714286
4	2181638	1220	1.3333333333333
4	2254240	1240	1.4444444444444
4	2328042	1260	1.2857142857143
4	2404478	1280	1.5238095238095
4	2482389	1300	1.5
4	2562494	1320	1.4666666666667
4	2643841	1340	1.4705882352941
4	2727459	1360	1.4782608695652
4	2812947	1380	1.3888888888889
4	2900486	1400	1.4375
4	2990872	1420	1.4166666666667
4	3081974	1440	1.75
4	3175623	1460	1.4375
4	3271907	1480	1.5
4	3369951	1500	1.625
4	3470404	1520	1.5
4	3572989	1540	1.8
4	3678878	1560	1.4761904761905
4	3787009	1580	1.3181818181818
4	3896508	1600	1.3888888888889
4	4008446	1620	1.2727272727273
4	4123560	1640	1.4736842105263
4	4239808	1660	1.7333333333333
4	4359058	1680	1.4736842105263
4	4481430	1700	1.8
4	4605997	1720	1.5
4	4731945	1740	1.4615384615385
4	4861531	1760	1.4736842105263
4	4993227	1780	1.5294117647059
4	5126432	1800	1.4666666666667
4	5262747	1820	1.5263157894737
4	5401123	1840	1.3809523809524
4	5541868	1860	1.4
4	5684648	1880	1.304347826087
4	5830842	1900	1.2941176470588
4	5979267	1920	1.1666666666667
4	6129517	1940	1.5769230769231
4	6282633	1960	1.5714285714286
4	6437697	1980	1.5
4	6595613	2000	1.52
5	145582	240	0
5	171241	260	0.37796447300923
5	198253	280	0.31622776601684
5	225426	300	0.52704627669473
5	252567	320	0.5
5	279804	340	0.48038446141526
5	307073	360	0.4409585518441
5	334266	380	0.51887452166277
5	361741	400	0.33333333333333
5	389233	420	0.50452497910951
5	416537	440	0.78173595997057
5	444429	460	0
5	472813	480	0.70710678118655
5	501674	500	0.52704627669473
5	530916	520	0.46291004988628
5	560825	540	0.40824829046386
5	591313	560	0.52704627669473
5	622448	580	0.44721359549996
5	653838	600	0.52704627669473
5	686068	620	0.49236596391733
5	719308	640	0.49724515809885
5	753306	660	0.52223296786709
5	788281	680	0.51754916950677
5	823926	700	0.28867513459481
5	860631	720	0.53452248382485
5	898697	740	0.46291004988628
5	938146	760	0.38924947208076
5	978732	780	0.78679579246944
5	1020067	800	0.46709936649691
5	1062841	820	0.51492865054444
5	1106746	840	0.50636968354183
5	1151286	860	0.50636968354183
5	1197588	880	0.46709936649691
5	1244814	900	0.44426165831932
5	1292996	920	0.50636968354183
5	1342740	940	0.51639777949432
5	1393820	960	0.37553380809941
5	1446385	980	0.45773770821706
5	1499673	1000	0.50709255283711
5	1554445	1020	0.51887452166277
5	1610188	1040	0.62158156050806
5	1667616	1060	0.4688072309385
5	1726805	1080	0.51887452166277
5	1787090	1100	0.52704627669473
5	1848913	1120	0.52223296786709
5	1911814	1140	0.40451991747795
5	1976627	1160	0.52704627669473
5	2043378	1180	0.47871355387817
5	2111489	1200	0.50709255283711
5	2181638	1220	0.49236596391733
5	2254240	1240	0.51130999256491
5	2328042	1260	0.4688072309385
5	2404478	1280	0.51176631571916
5	2482389	1300	0.51449575542753
5	2562494	1320	0.51639777949432
5	2643841	1340	0.51449575542753
5	2727459	1360	0.51075391845525
5	2812947	1380	0.50163132570455
5	2900486	1400	0.51234753829798
5	2990872	1420	0.51492865054444
5	3081974	1440	0.45226701686665
5	3175623	1460	0.51234753829798
5	3271907	1480	0.51887452166277
5	3369951	1500	0.51754916950677
5	3470404	1520	0.51449575542753
5	3572989	1540	0.42163702135578
5	3678878	1560	0.51176631571916
5	3787009	1580	0.4767312946228
5	3896508	1600	0.50163132570455
5	4008446	1620	0.45584230583855
5	4123560	1640	0.51298917604258
5	4239808	1660	0.59361683970466
5	4359058	1680	0.6117752903215
5	4481430	1700	0.67612340378281
5	4605997	1720	0.51887452166277
5	4731945	1740	0.51887452166277
5	4861531	1760	0.51298917604258
5	4993227	1780	0.51449575542753
5	5126432	1800	0.51639777949432
5	5262747	1820	0.51298917604258
5	5401123	1840	0.49761335152812
5	5541868	1860	0.5
5	5684648	1880	0.47047196889696
5	5830842	1900	0.46966821831386
5	5979267	1920	0.38348249442369
5	6129517	1940	0.50383147365578
5	6282633	1960	0.5135525910131
5	6437697	1980	0.51449575542753
5	6595613	2000	0.58594652770823
6	145582	240	0
6	171241	260	0.14285714285714
6	198253	280	0.1
6	225426	300	0.27777777777778
6	252567	320	0.25
6	279804	340	0.23076923076923
6	307073	360	0.19444444444444
6	334266	380	0.26923076923077
6	361741	400	0.11111111111111
6	389233	420	0.25454545454545
6	416537	440	0.61111111111111
6	444429	460	0
6	472813	480	0.5
6	501674	500	0.27777777777778
6	530916	520	0.21428571428571
6	560825	540	0.16666666666667
6	591313	560	0.27777777777778
6	622448	580	0.2
6	653838	600	0.27777777777778
6	686068	620	0.24242424242424
6	719308	640	0.24725274725275
6	753306	660	0.27272727272727
6	788281	680	0.26785714285714
6	823926	700	0.083333333333333
6	860631	720	0.28571428571429
6	898697	740	0.21428571428571
6	938146	760	0.15151515151515
6	978732	780	0.61904761904762
6	1020067	800	0.21818181818182
6	1062841	820	0.26515151515152
6	1106746	840	0.25641025641026
6	1151286	860	0.25641025641026
6	1197588	880	0.21818181818182
6	1244814	900	0.19736842105263
6	1292996	920	0.25641025641026
6	1342740	940	0.26666666666667
6	1393820	960	0.14102564102564
6	1446385	980	0.20952380952381
6	1499673	1000	0.25714285714286
6	1554445	1020	0.26923076923077
6	1610188	1040	0.38636363636364
6	1667616	1060	0.21978021978022
6	1726805	1080	0.26923076923077
6	1787090	1100	0.27777777777778
6	1848913	1120	0.27272727272727
6	1911814	1140	0.16363636363636
6	1976627	1160	0.27777777777778
6	2043378	1180	0.22916666666667
6	2111489	1200	0.25714285714286
6	2181638	1220	0.24242424242424
6	2254240	1240	0.26143790849673
6	2328042	1260	0.21978021978022
6	2404478	1280	0.26190476190476
6	2482389	1300	0.26470588235294
6	2562494	1320	0.26666666666667
6	2643841	1340	0.26470588235294
6	2727459	1360	0.26086956521739
6	2812947	1380	0.2516339869281
6	2900486	1400	0.2625
6	2990872	1420	0.26515151515152
6	3081974	1440	0.20454545454545
6	3175623	1460	0.2625
6	3271907	1480	0.26923076923077
6	3369951	1500	0.26785714285714
6	3470404	1520	0.26470588235294
6	3572989	1540	0.17777777777778
6	3678878	1560	0.26190476190476
6	3787009	1580	0.22727272727273
6	3896508	1600	0.2516339869281
6	4008446	1620	0.20779220779221
6	4123560	1640	0.26315789473684
6	4239808	1660	0.35238095238095
6	4359058	1680	0.37426900584795
6	4481430	1700	0.45714285714286
6	4605997	1720	0.26923076923077
6	4731945	1740	0.26923076923077
6	4861531	1760	0.26315789473684
6	4993227	1780	0.26470588235294
6	5126432	1800	0.26666666666667
6	5262747	1820	0.26315789473684
6	5401123	1840	0.24761904761905
6	5541868	1860	0.25
6	5684648	1880	0.22134387351779
6	5830842	1900	0.22058823529412
6	5979267	1920	0.14705882352941
6	6129517	1940	0.25384615384615
6	6282633	1960	0.26373626373626
6	6437697	1980	0.26470588235294
6	6595613	2000	0.34333333333333
7	145582	240	23.246753246753
7	171241	260	22.411764705882
7	198253	280	22.282608695652
7	225426	300	22.451612903226
7	252567	320	22.483870967742
7	279804	340	22.659574468085
7	307073	360	22.408602150538
7	334266	380	22.397849462366
7	361741	400	22.510638297872
7	389233	420	22.698924731183
7	416537	440	22.597826086957
7	444429	460	22.094736842105
7	472813	480	22.164948453608
7	501674	500	22.229166666667
7	530916	520	21.920792079208
7	560825	540	22.3
7	591313	560	22.376237623762
7	622448	580	22.572815533981
7	653838	600	22.747572815534
7	686068	620	22.619047619048
7	719308	640	22.878504672897
7	753306	660	23.560747663551
7	788281	680	23.781818181818
7	823926	700	24.082568807339
7	860631	720	24.972972972973
7	898697	740	24.982142857143
7	938146	760	25.736842105263
7	978732	780	26.282051282051
7	1020067	800	26.860869565217
7	1062841	820	27.627118644068
7	1106746	840	28.051282051282
7	1151286	860	28.226890756303
7	1197588	880	28.791666666667
7	1244814	900	29.155737704918
7	1292996	920	28.693548387097
7	1342740	940	29.585365853659
7	1393820	960	29.771653543307
7	1446385	980	30.171875
7	1499673	1000	30.93023255814
7	1554445	1020	30.778625954198
7	1610188	1040	31.523076923077
7	1667616	1060	31.80303030303
7	1726805	1080	32.601503759398
7	1787090	1100	32.835820895522
7	1848913	1120	33.397058823529
7	1911814	1140	34.162962962963
7	1976627	1160	34.26618705036
7	2043378	1180	34.633802816901
7	2111489	1200	36.05
7	2181638	1220	36.076923076923
7	2254240	1240	37.056338028169
7	2328042	1260	37.6
7	2404478	1280	38.204081632653
7	2482389	1300	38.809523809524
7	2562494	1320	40.047297297297
7	2643841	1340	40.046979865772
7	2727459	1360	40.873333333333
7	2812947	1380	41.256578947368
7	2900486	1400	42.361842105263
7	2990872	1420	43.313725490196
7	3081974	1440	43.153846153846
7	3175623	1460	43.993630573248
7	3271907	1480	45.126582278481
7	3369951	1500	45.61875
7	3470404	1520	46.074074074074
7	3572989	1540	46.834355828221
7	3678878	1560	47.914634146341
7	3787009	1580	48.638554216867
7	3896508	1600	49.149700598802
7	4008446	1620	49.789156626506
7	4123560	1640	50.307692307692
7	4239808	1660	50.994082840237
7	4359058	1680	51.816568047337
7	4481430	1700	52.418604651163
7	4605997	1720	52.612716763006
7	4731945	1740	52.971098265896
7	4861531	1760	53.23595505618
7	4993227	1780	53.692737430168
7	5126432	1800	54.5
7	5262747	1820	55.631284916201
7	5401123	1840	55.469613259669
7	5541868	1860	55.934065934066
7	5684648	1880	56.119565217391
7	5830842	1900	57.151351351351
7	5979267	1920	57.48128342246
7	6129517	1940	57.781914893617
7	6282633	1960	58.744680851064
7	6437697	1980	59.243386243386
7	6595613	2000	59.436842105263
8	145582	240	3.6315715177195
8	171241	260	4.5258361964736
8	198253	280	5.1340836668237
8	225426	300	4.2414008376854
8	252567	320	4.020634016696
8	279804	340	4.3836283677381
8	307073	360	4.1500040836538
8	334266	380	3.8310510107094
8	361741	400	3.9178243931156
8	389233	420	4.5701891936781
8	416537	440	3.9448388387775
8	444429	460	4.4292876431494
8	472813	480	4.8534360946034
8	501674	500	4.5014130335091
8	530916	520	4.6490497272385
8	560825	540	4.1034599837678
8	591313	560	4.8308415108519
8	622448	580	3.8389182037968
8	653838	600	4.0188732363978
8	686068	620	3.6647514145441
8	719308	640	4.3496047974323
8	753306	660	3.5771221965863
8	788281	680	3.3928738547376
8	823926	700	3.7862530103848
8	860631	720	4.2585944319255
8	898697	740	3.9909405129125
8	938146	760	5.5511341926138
8	978732	780	5.9911517427156
8	1020067	800	5.9572850235035
8	1062841	820	7.1871164529928
8	1106746	840	6.6770917603892
8	1151286	860	7.2186633989698
8	1197588	880	7.1630422077123
8	1244814	900	7.7736793588112
8	1292996	920	8.6946179215948
8	1342740	940	8.2142687024393
8	1393820	960	9.0957769517071
8	1446385	980	9.8116990871295
8	1499673	1000	9.7019537711094
8	1554445	1020	10.168798489146
8	1610188	1040	10.809280669808
8	1667616	1060	11.37657925884
8	1726805	1080	11.736978503356
8	1787090	1100	12.291077532708
8	1848913	1120	12.477701243516
8	1911814	1140	12.710441945067
8	1976627	1160	13.307715719646
8	2043378	1180	14.065943415193
8	2111489	1200	14.104096552716
8	2181638	1220	15.095040190513
8	2254240	1240	15.361725785828
8	2328042	1260	16.074652234013
8	2404478	1280	16.858776331352
8	2482389	1300	17.284220903397
8	2562494	1320	17.669426479133
8	2643841	1340	18.280596555139
8	2727459	1360	19.157873481446
8	2812947	1380	18.901100816089
8	2900486	1400	19.663914353709
8	2990872	1420	20.096631882062
8	3081974	1440	21.469604574736
8	3175623	1460	21.41156433742
8	3271907	1480	22.318406381371
8	3369951	1500	22.470349960748
8	3470404	1520	23.257285122067
8	3572989	1540	23.312494346123
8	3678878	1560	24.23793164732
8	3787009	1580	24.794710243898
8	3896508	1600	24.985689577131
8	4008446	1620	25.575748513224
8	4123560	1640	25.938572123568
8	4239808	1660	25.886312121563
8	4359058	1680	26.190160094406
8	4481430	1700	26.497032876494
8	4605997	1720	26.944500671074
8	4731945	1740	26.741751117991
8	4861531	1760	27.366325330177
8	4993227	1780	27.946186304776
8	5126432	1800	27.759510000723
8	5262747	1820	27.926233569413
8	5401123	1840	28.151088677678
8	5541868	1860	28.236687939767
8	5684648	1880	28.955908592771
8	5830842	1900	29.159024459043
8	5979267	1920	28.913914172117
8	6129517	1940	29.037874816413
8	6282633	1960	29.450923982568
8	6437697	1980	29.92853226925
8	6595613	2000	29.931910570463
9	145582	240	13.188311688312
9	171241	260	20.483193277311
9	198253	280	26.358815097946
9	225426	300	17.989481065919
9	252567	320	16.165497896213
9	279804	340	19.216197666438
9	307073	360	17.222533894343
9	334266	380	14.676951846657
9	361741	400	15.349347975292
9	389233	420	20.886629266012
9	416537	440	15.561753463927
9	444429	460	19.618589025756
9	472813	480	23.555841924399
9	501674	500	20.262719298246
9	530916	520	21.613663366337
9	560825	540	16.838383838384
9	591313	560	23.33702970297
9	622448	580	14.737292975443
9	653838	600	16.151342090234
9	686068	620	13.430402930403
9	719308	640	18.919061893846
9	753306	660	12.795803209311
9	788281	680	11.511592994162
9	823926	700	14.335711858648
9	860631	720	18.135626535627
9	898697	740	15.927606177606
9	938146	760	30.815090824406
9	978732	780	35.893899204244
9	1020067	800	35.489244851259
9	1062841	820	51.65464290888
9	1106746	840	44.583554376658
9	1151286	860	52.109101267626
9	1197588	880	51.309173669468
9	1244814	900	60.430090773608
9	1292996	920	75.596380802518
9	1342740	940	67.474210315874
9	1393820	960	82.733158355206
9	1446385	980	96.269438976378
9	1499673	1000	94.127906976744
9	1554445	1020	103.40446271286
9	1610188	1040	116.84054859869
9	1667616	1060	129.42655563266
9	1726805	1080	137.75666438824
9	1787090	1100	151.07058691505
9	1848913	1120	155.69302832244
9	1911814	1140	161.55533443892
9	1976627	1160	177.0952976749
9	2043378	1180	197.85076415942
9	2111489	1200	198.92553956835
9	2181638	1220	227.8602383532
9	2254240	1240	235.98261911897
9	2328042	1260	258.39444444444
9	2404478	1280	284.21833939055
9	2482389	1300	298.74429223744
9	2562494	1320	312.20863210149
9	2643841	1340	334.18021041175
9	2727459	1360	367.0241163311
9	2812947	1380	357.25161205995
9	2900486	1400	386.66952771
9	2990872	1420	403.8746130031
9	3081974	1440	460.94392059553
9	3175623	1460	458.45508737547
9	3271907	1480	498.11126340402
9	3369951	1500	504.91662735849
9	3470404	1520	540.90131124914
9	3572989	1540	543.47239263804
9	3678878	1560	587.47733054018
9	3787009	1580	614.77765607886
9	3896508	1600	624.28468364476
9	4008446	1620	654.11891201168
9	4123560	1640	672.80952380952
9	4239808	1660	670.101155255
9	4359058	1680	685.92448577064
9	4481430	1700	702.09275125799
9	4605997	1720	726.0061164135
9	4731945	1740	715.12125285657
9	4861531	1760	748.91576207706
9	4993227	1780	780.98932898123
9	5126432	1800	770.59039548023
9	5262747	1820	779.87452137342
9	5401123	1840	792.48379373849
9	5541868	1860	797.31054580778
9	5684648	1880	838.44464243288
9	5830842	1900	850.24870740306
9	5979267	1920	836.01443275257
9	6129517	1940	843.19817385368
9	6282633	1960	867.35692342701
9	6437697	1980	895.71704379151
9	6595613	2000	895.91927039822
10	145582	240	191.70720141863
10	171241	260	331.2625438877
10	198253	280	483.44820519408
10	225426	300	486.65735197995
10	252567	320	433.52528753049
10	279804	340	626.11916062288
10	307073	360	453.52993948449
10	334266	380	629.51198474516
10	361741	400	447.80175816947
10	389233	420	537.54315937332
10	416537	440	435.27462046766
10	444429	460	250.2882435374
10	472813	480	384.15586256341
10	501674	500	432.88628400384
10	530916	520	387.81707923032
10	560825	540	290.30424292385
10	591313	560	429.19819450567
10	622448	580	781.66207826755
10	653838	600	431.84796778224
10	686068	620	592.10780063726
10	719308	640	668.63188916128
10	753306	660	530.0335494441
10	788281	680	388.34121592418
10	823926	700	572.30510486099
10	860631	720	396.53355523237
10	898697	740	383.82934099398
10	938146	760	585.77952865009
10	978732	780	342.04797342058
10	1020067	800	530.64622620677
10	1062841	820	603.34178974543
10	1106746	840	628.58862074476
10	1151286	860	637.43202612619
10	1197588	880	535.18746246048
10	1244814	900	975.30541870509
10	1292996	920	646.61365316144
10	1342740	940	494.13743805715
10	1393820	960	644.49189515847
10	1446385	980	726.70180185817
10	1499673	1000	734.65630046679
10	1554445	1020	706.05272179512
10	1610188	1040	589.25314559111
10	1667616	1060	700.72769948692
10	1726805	1080	648.23793110219
10	1787090	1100	487.69867742935
10	1848913	1120	542.02394646764
10	1911814	1140	532.52733891166
10	1976627	1160	449.36550887001
10	2043378	1180	803.28662758607
10	2111489	1200	1055.8012503198
10	2181638	1220	588.38891385161
10	2254240	1240	912.12851698097
10	2328042	1260	713.42310524197
10	2404478	1280	1043.2754581685
10	2482389	1300	914.2015402695
10	2562494	1320	738.85588818499
10	2643841	1340	852.92996860674
10	2727459	1360	1141.626993442
10	2812947	1380	900.50834760128
10	2900486	1400	814.21540031459
10	2990872	1420	596.55726081295
10	3081974	1440	602.68511892377
10	3175623	1460	817.15085511716
10	3271907	1480	709.68188565624
10	3369951	1500	408.59571942671
10	3470404	1520	882.51602394477
10	3572989	1540	510.70354934194
10	3678878	1560	1061.5807972001
10	3787009	1580	1134.5223027748
10	3896508	1600	876.4314546602
10	4008446	1620	1110.1278465541
10	4123560	1640	950.62579641963
10	4239808	1660	747.37940986287
10	4359058	1680	951.97992789585
10	4481430	1700	750.19180262075
10	4605997	1720	693.59751739893
10	4731945	1740	662.19534853822
10	4861531	1760	955.0176398414
10	4993227	1780	839.48540472721
10	5126432	1800	747.98208224465
10	5262747	1820	967.51308233484
10	5401123	1840	1067.6636027616
10	5541868	1860	1254.575186097
10	5684648	1880	1151.2061054718
10	5830842	1900	871.29347985197
10	5979267	1920	903.52959158461
10	6129517	1940	1310.2195758759
10	6282633	1960	705.34488757165
10	6437697	1980	909.0513635448
10	6595613	2000	1248.5864292896
11	145582	240	47.926800354656
11	171241	260	47.323220555386
11	198253	280	48.344820519408
11	225426	300	48.665735197995
11	252567	320	48.169476392277
11	279804	340	48.163012355606
11	307073	360	50.392215498276
11	334266	380	48.423998826551
11	361741	400	49.755750907719
11	389233	420	48.867559943029
11	416537	440	48.363846718628
11	444429	460	50.057648707479
11	472813	480	48.019482820427
11	501674	500	48.098476000427
11	530916	520	48.47713490379
11	560825	540	48.384040487308
11	591313	560	47.688688278408
11	622448	580	48.853879891722
11	653838	600	47.98310753136
11	686068	620	49.342316719771
11	719308	640	47.759420654377
11	753306	660	48.184868131282
11	788281	680	48.542651990523
11	823926	700	47.692092071749
11	860631	720	49.566694404047
11	898697	740	47.978667624248
11	938146	760	48.814960720841
11	978732	780	48.86399620294
11	1020067	800	48.240566018797
11	1062841	820	50.278482478786
11	1106746	840	48.35297082652
11	1151286	860	49.033232778938
11	1197588	880	48.653405678225
11	1244814	900	48.765270935254
11	1292996	920	49.73951178165
11	1342740	940	49.413743805715
11	1393820	960	49.576299627574
11	1446385	980	48.446786790544
11	1499673	1000	48.977086697786
11	1554445	1020	50.43233727108
11	1610188	1040	49.104428799259
11	1667616	1060	50.05197853478
11	1726805	1080	49.86445623863
11	1787090	1100	48.769867742935
11	1848913	1120	49.27490422433
11	1911814	1140	48.411576264696
11	1976627	1160	49.929500985557
11	2043378	1180	50.205414224129
11	2111489	1200	50.276250015228
11	2181638	1220	49.032409487635
11	2254240	1240	50.673806498943
11	2328042	1260	50.95879323157
11	2404478	1280	49.679783722309
11	2482389	1300	50.788974459417
11	2562494	1320	49.257059212333
11	2643841	1340	50.172351094514
11	2727459	1360	49.635956236608
11	2812947	1380	50.028241533404
11	2900486	1400	50.888462519662
11	2990872	1420	49.713105067746
11	3081974	1440	50.223759910314
11	3175623	1460	51.071928444822
11	3271907	1480	50.69156326116
11	3369951	1500	51.074464928339
11	3470404	1520	49.028667996932
11	3572989	1540	51.070354934194
11	3678878	1560	50.55146653334
11	3787009	1580	51.569195580673
11	3896508	1600	48.690636370011
11	4008446	1620	50.460356661551
11	4123560	1640	50.032936653665
11	4239808	1660	49.825293990858
11	4359058	1680	50.10420673136
11	4481430	1700	50.012786841383
11	4605997	1720	49.542679814209
11	4731945	1740	50.938103733709
11	4861531	1760	50.264086307442
11	4993227	1780	49.381494395718
11	5126432	1800	49.865472149643
11	5262747	1820	50.921741175518
11	5401123	1840	50.841123941029
11	5541868	1860	50.183007443882
11	5684648	1880	50.052439368338
11	5830842	1900	51.252557638351
11	5979267	1920	50.196088421367
11	6129517	1940	50.39306061061
11	6282633	1960	50.38177768369
11	6437697	1980	50.502853530267
11	6595613	2000	49.943457171583
12	145582	240	1.8901112511226
12	171241	260	1.3803754079615
12	198253	280	1.8903702409499
12	225426	300	1.9391771231685
12	252567	320	1.8641358672039
12	279804	340	1.2037386434721
12	307073	360	4.7195504256897
12	334266	380	2.0732085913941
12	361741	400	2.1696348648425
12	389233	420	1.4337129789199