version 2
run statisticRVV-180-20150327-12:53:17-17144
attr c 7
attr configname statisticRVV
attr datetime 20150327-12:53:17
attr experiment statisticRVV
attr inifile omnetpp.ini
attr iterationvars "$sc=\"erlangen-medium.launchd.xml\", $p=1/8, $c=7"
attr iterationvars2 "$sc=\"erlangen-medium.launchd.xml\", $p=1/8, $c=7, $repetition=0"
attr measurement "$sc=\"erlangen-medium.launchd.xml\", $p=1/8, $c=7"
attr network RSUExampleScenario
attr p 1/8
attr processid 17144
attr repetition 0
attr replication #0
attr resultdir results
attr runnumber 180
attr sc "\"erlangen-medium.launchd.xml\""
attr seedset 180

vector 0  RSUExampleScenario.rsu[0].appl  Number_CH  ETV
vector 1  RSUExampleScenario.rsu[0].appl  Number_ON  ETV
vector 2  RSUExampleScenario.rsu[0].appl  Number_FN  ETV
vector 3  RSUExampleScenario.rsu[0].appl  Number_CH_Losts  ETV
vector 4  RSUExampleScenario.rsu[0].appl  Number_CH_Losts  ETV
vector 5  RSUExampleScenario.rsu[0].appl  Mean_Cluster_Size  ETV
vector 6  RSUExampleScenario.rsu[0].appl  StdDev_Cluster_Size  ETV
vector 7  RSUExampleScenario.rsu[0].appl  Variance_Cluster_Size  ETV
vector 8  RSUExampleScenario.rsu[0].appl  Mean_Neighbors  ETV
vector 9  RSUExampleScenario.rsu[0].appl  StdDev_Neighbors  ETV
vector 10  RSUExampleScenario.rsu[0].appl  Variance_Neighbors  ETV
vector 11  RSUExampleScenario.rsu[0].appl  Total_CH_Utility  ETV
vector 12  RSUExampleScenario.rsu[0].appl  Mean_CH_Utility  ETV
vector 13  RSUExampleScenario.rsu[0].appl  StdDev_CH_Utility  ETV
vector 14  RSUExampleScenario.rsu[0].appl  Variance_CH_Utility  ETV
vector 15  RSUExampleScenario.rsu[0].appl  Total_exp_CH_Utility  ETV
vector 16  RSUExampleScenario.rsu[0].appl  Mean_exp_CH_Utility  ETV
vector 17  RSUExampleScenario.rsu[0].appl  StdDev_exp_CH_Utility  ETV
vector 18  RSUExampleScenario.rsu[0].appl  Variance_exp_CH_Utility  ETV
vector 19  RSUExampleScenario.rsu[0].appl  Total_ON_Utility  ETV
vector 20  RSUExampleScenario.rsu[0].appl  Mean_ON_Utility  ETV
vector 21  RSUExampleScenario.rsu[0].appl  StdDev_ON_Utility  ETV
vector 22  RSUExampleScenario.rsu[0].appl  Variance_ON_Utility  ETV
vector 23  RSUExampleScenario.rsu[0].appl  Total_exp_ON_Utility  ETV
vector 24  RSUExampleScenario.rsu[0].appl  Mean_exp_ON_Utility  ETV
vector 25  RSUExampleScenario.rsu[0].appl  StdDev_exp_ON_Utility  ETV
vector 26  RSUExampleScenario.rsu[0].appl  Variance_exp_ON_Utility  ETV
0	145582	240	7
0	171241	260	11
0	198253	280	15
0	225426	300	12
0	252567	320	13
0	279804	340	16
0	307073	360	9
0	334266	380	13
0	361741	400	12
0	389233	420	13
0	416537	440	12
0	444429	460	6
0	472813	480	9
0	501674	500	13
0	530916	520	10
0	560825	540	12
0	591313	560	12
0	622448	580	17
0	653838	600	11
0	686068	620	16
0	719308	640	18
0	753306	660	15
0	788281	680	10
0	823926	700	15
0	860631	720	9
0	898697	740	10
0	938146	760	14
0	978732	780	8
0	1020067	800	12
0	1062841	820	14
0	1106746	840	15
0	1151286	860	16
0	1197588	880	14
0	1244814	900	24
0	1292996	920	15
0	1342740	940	13
0	1393820	960	15
0	1446385	980	18
0	1499673	1000	19
0	1554445	1020	14
0	1610188	1040	13
0	1667616	1060	17
0	1726805	1080	17
0	1787090	1100	13
0	1848913	1120	14
0	1911814	1140	12
0	1976627	1160	15
0	2043378	1180	21
0	2111489	1200	24
0	2181638	1220	13
0	2254240	1240	23
0	2328042	1260	16
0	2404478	1280	21
0	2482389	1300	21
0	2562494	1320	16
0	2643841	1340	21
0	2727459	1360	22
0	2812947	1380	21
0	2900486	1400	17
0	2990872	1420	16
0	3081974	1440	16
0	3175623	1460	18
0	3271907	1480	17
0	3369951	1500	12
0	3470404	1520	23
0	3572989	1540	10
0	3678878	1560	24
0	3787009	1580	25
0	3896508	1600	20
0	4008446	1620	26
0	4123560	1640	25
0	4239808	1660	17
0	4359058	1680	21
0	4481430	1700	20
0	4605997	1720	20
0	4731945	1740	13
0	4861531	1760	24
0	4993227	1780	18
0	5126432	1800	21
0	5262747	1820	20
0	5401123	1840	22
0	5541868	1860	26
0	5684648	1880	24
0	5830842	1900	21
0	5979267	1920	22
0	6129517	1940	30
0	6282633	1960	18
0	6437697	1980	20
0	6595613	2000	30
1	145582	240	35
1	171241	260	52
1	198253	280	59
1	225426	300	71
1	252567	320	58
1	279804	340	63
1	307073	360	55
1	334266	380	59
1	361741	400	56
1	389233	420	64
1	416537	440	57
1	444429	460	40
1	472813	480	55
1	501674	500	72
1	530916	520	48
1	560825	540	62
1	591313	560	56
1	622448	580	71
1	653838	600	62
1	686068	620	72
1	719308	640	83
1	753306	660	61
1	788281	680	52
1	823926	700	76
1	860631	720	56
1	898697	740	63
1	938146	760	72
1	978732	780	54
1	1020067	800	76
1	1062841	820	70
1	1106746	840	70
1	1151286	860	87
1	1197588	880	72
1	1244814	900	89
1	1292996	920	74
1	1342740	940	73
1	1393820	960	81
1	1446385	980	83
1	1499673	1000	77
1	1554445	1020	79
1	1610188	1040	80
1	1667616	1060	83
1	1726805	1080	92
1	1787090	1100	63
1	1848913	1120	79
1	1911814	1140	70
1	1976627	1160	89
1	2043378	1180	89
1	2111489	1200	105
1	2181638	1220	78
1	2254240	1240	102
1	2328042	1260	85
1	2404478	1280	103
1	2482389	1300	93
1	2562494	1320	80
1	2643841	1340	95
1	2727459	1360	104
1	2812947	1380	96
1	2900486	1400	91
1	2990872	1420	87
1	3081974	1440	85
1	3175623	1460	92
1	3271907	1480	84
1	3369951	1500	68
1	3470404	1520	101
1	3572989	1540	62
1	3678878	1560	107
1	3787009	1580	119
1	3896508	1600	93
1	4008446	1620	118
1	4123560	1640	111
1	4239808	1660	97
1	4359058	1680	111
1	4481430	1700	100
1	4605997	1720	98
1	4731945	1740	80
1	4861531	1760	124
1	4993227	1780	112
1	5126432	1800	112
1	5262747	1820	116
1	5401123	1840	122
1	5541868	1860	131
1	5684648	1880	115
1	5830842	1900	112
1	5979267	1920	122
1	6129517	1940	130
1	6282633	1960	91
1	6437697	1980	118
1	6595613	2000	138
2	145582	240	36
2	171241	260	22
2	198253	280	18
2	225426	300	12
2	252567	320	22
2	279804	340	15
2	307073	360	29
2	334266	380	21
2	361741	400	26
2	389233	420	16
2	416537	440	23
2	444429	460	49
2	472813	480	33
2	501674	500	11
2	530916	520	43
2	560825	540	26
2	591313	560	33
2	622448	580	15
2	653838	600	30
2	686068	620	17
2	719308	640	6
2	753306	660	31
2	788281	680	48
2	823926	700	19
2	860631	720	46
2	898697	740	39
2	938146	760	28
2	978732	780	55
2	1020067	800	28
2	1062841	820	34
2	1106746	840	33
2	1151286	860	16
2	1197588	880	34
2	1244814	900	9
2	1292996	920	35
2	1342740	940	38
2	1393820	960	31
2	1446385	980	27
2	1499673	1000	33
2	1554445	1020	38
2	1610188	1040	38
2	1667616	1060	32
2	1726805	1080	24
2	1787090	1100	58
2	1848913	1120	43
2	1911814	1140	54
2	1976627	1160	35
2	2043378	1180	32
2	2111489	1200	12
2	2181638	1220	52
2	2254240	1240	17
2	2328042	1260	44
2	2404478	1280	23
2	2482389	1300	33
2	2562494	1320	52
2	2643841	1340	33
2	2727459	1360	24
2	2812947	1380	36
2	2900486	1400	44
2	2990872	1420	51
2	3081974	1440	55
2	3175623	1460	47
2	3271907	1480	58
2	3369951	1500	80
2	3470404	1520	38
2	3572989	1540	91
2	3678878	1560	34
2	3787009	1580	22
2	3896508	1600	54
2	4008446	1620	22
2	4123560	1640	33
2	4239808	1660	56
2	4359058	1680	37
2	4481430	1700	53
2	4605997	1720	56
2	4731945	1740	81
2	4861531	1760	31
2	4993227	1780	50
2	5126432	1800	45
2	5262747	1820	43
2	5401123	1840	37
2	5541868	1860	25
2	5684648	1880	45
2	5830842	1900	52
2	5979267	1920	44
2	6129517	1940	28
2	6282633	1960	79
2	6437697	1980	51
2	6595613	2000	22
3	145582	240	1
3	171241	260	1
3	198253	280	0
3	225426	300	0
3	252567	320	0
3	279804	340	0
3	307073	360	0
3	334266	380	0
3	361741	400	0
3	389233	420	2
3	416537	440	0
3	444429	460	1
3	472813	480	0
3	501674	500	2
3	530916	520	1
3	560825	540	0
3	591313	560	1
3	622448	580	1
3	653838	600	0
3	686068	620	0
3	719308	640	1
3	753306	660	0
3	788281	680	0
3	823926	700	0
3	860631	720	0
3	898697	740	0
3	938146	760	0
3	978732	780	1
3	1020067	800	0
3	1062841	820	0
3	1106746	840	2
3	1151286	860	0
3	1197588	880	1
3	1244814	900	3
3	1292996	920	0
3	1342740	940	0
3	1393820	960	0
3	1446385	980	2
3	1499673	1000	3
3	1554445	1020	0
3	1610188	1040	0
3	1667616	1060	0
3	1726805	1080	0
3	1787090	1100	1
3	1848913	1120	0
3	1911814	1140	0
3	1976627	1160	0
3	2043378	1180	2
3	2111489	1200	0
3	2181638	1220	0
3	2254240	1240	1
3	2328042	1260	0
3	2404478	1280	0
3	2482389	1300	2
3	2562494	1320	0
3	2643841	1340	1
3	2727459	1360	4
3	2812947	1380	1
3	2900486	1400	0
3	2990872	1420	0
3	3081974	1440	1
3	3175623	1460	0
3	3271907	1480	1
3	3369951	1500	1
3	3470404	1520	2
3	3572989	1540	1
3	3678878	1560	0
3	3787009	1580	0
3	3896508	1600	1
3	4008446	1620	1
3	4123560	1640	1
3	4239808	1660	0
3	4359058	1680	0
3	4481430	1700	0
3	4605997	1720	1
3	4731945	1740	0
3	4861531	1760	1
3	4993227	1780	0
3	5126432	1800	0
3	5262747	1820	0
3	5401123	1840	1
3	5541868	1860	1
3	5684648	1880	0
3	5830842	1900	0
3	5979267	1920	3
3	6129517	1940	1
3	6282633	1960	0
3	6437697	1980	0
3	6595613	2000	1
4	145582	240	35
4	171241	260	21
4	198253	280	18
4	225426	300	10
4	252567	320	22
4	279804	340	15
4	307073	360	29
4	334266	380	21
4	361741	400	26
4	389233	420	14
4	416537	440	23
4	444429	460	48
4	472813	480	33
4	501674	500	9
4	530916	520	42
4	560825	540	26
4	591313	560	32
4	622448	580	14
4	653838	600	30
4	686068	620	17
4	719308	640	5
4	753306	660	31
4	788281	680	48
4	823926	700	18
4	860631	720	46
4	898697	740	39
4	938146	760	28
4	978732	780	54
4	1020067	800	27
4	1062841	820	34
4	1106746	840	30
4	1151286	860	16
4	1197588	880	33
4	1244814	900	6
4	1292996	920	35
4	1342740	940	37
4	1393820	960	31
4	1446385	980	25
4	1499673	1000	30
4	1554445	1020	38
4	1610188	1040	37
4	1667616	1060	32
4	1726805	1080	24
4	1787090	1100	57
4	1848913	1120	43
4	1911814	1140	53
4	1976627	1160	35
4	2043378	1180	30
4	2111489	1200	11
4	2181638	1220	52
4	2254240	1240	16
4	2328042	1260	44
4	2404478	1280	23
4	2482389	1300	31
4	2562494	1320	52
4	2643841	1340	32
4	2727459	1360	20
4	2812947	1380	35
4	2900486	1400	44
4	2990872	1420	50
4	3081974	1440	54
4	3175623	1460	47
4	3271907	1480	56
4	3369951	1500	79
4	3470404	1520	36
4	3572989	1540	90
4	3678878	1560	33
4	3787009	1580	22
4	3896508	1600	53
4	4008446	1620	21
4	4123560	1640	32
4	4239808	1660	55
4	4359058	1680	37
4	4481430	1700	52
4	4605997	1720	55
4	4731945	1740	80
4	4861531	1760	30
4	4993227	1780	49
4	5126432	1800	45
4	5262747	1820	43
4	5401123	1840	36
4	5541868	1860	24
4	5684648	1880	45
4	5830842	1900	52
4	5979267	1920	41
4	6129517	1940	27
4	6282633	1960	79
4	6437697	1980	51
4	6595613	2000	21
5	145582	240	5
5	171241	260	4.7272727272727
5	198253	280	3.9333333333333
5	225426	300	5.9166666666667
5	252567	320	4.4615384615385
5	279804	340	3.9375
5	307073	360	6.1111111111111
5	334266	380	4.5384615384615
5	361741	400	4.6666666666667
5	389233	420	4.9230769230769
5	416537	440	4.75
5	444429	460	6.6666666666667
5	472813	480	6.1111111111111
5	501674	500	5.5384615384615
5	530916	520	4.8
5	560825	540	5.1666666666667
5	591313	560	4.6666666666667
5	622448	580	4.1764705882353
5	653838	600	5.6363636363636
5	686068	620	4.5
5	719308	640	4.6111111111111
5	753306	660	4.0666666666667
5	788281	680	5.2
5	823926	700	5.0666666666667
5	860631	720	6.2222222222222
5	898697	740	6.3
5	938146	760	5.1428571428571
5	978732	780	6.75
5	1020067	800	6.3333333333333
5	1062841	820	5
5	1106746	840	4.6666666666667
5	1151286	860	5.4375
5	1197588	880	5.1428571428571
5	1244814	900	3.7083333333333
5	1292996	920	4.9333333333333
5	1342740	940	5.6153846153846
5	1393820	960	5.4
5	1446385	980	4.6111111111111
5	1499673	1000	4.0526315789474
5	1554445	1020	5.6428571428571
5	1610188	1040	6.1538461538462
5	1667616	1060	4.8823529411765
5	1726805	1080	5.4117647058824
5	1787090	1100	4.8461538461538
5	1848913	1120	5.6428571428571
5	1911814	1140	5.8333333333333
5	1976627	1160	5.9333333333333
5	2043378	1180	4.2380952380952
5	2111489	1200	4.375
5	2181638	1220	6
5	2254240	1240	4.4347826086957
5	2328042	1260	5.3125
5	2404478	1280	4.9047619047619
5	2482389	1300	4.4285714285714
5	2562494	1320	5
5	2643841	1340	4.5238095238095
5	2727459	1360	4.7272727272727
5	2812947	1380	4.5714285714286
5	2900486	1400	5.3529411764706
5	2990872	1420	5.4375
5	3081974	1440	5.3125
5	3175623	1460	5.1111111111111
5	3271907	1480	4.9411764705882
5	3369951	1500	5.6666666666667
5	3470404	1520	4.3913043478261
5	3572989	1540	6.2
5	3678878	1560	4.4583333333333
5	3787009	1580	4.76
5	3896508	1600	4.65
5	4008446	1620	4.5384615384615
5	4123560	1640	4.44
5	4239808	1660	5.7058823529412
5	4359058	1680	5.2857142857143
5	4481430	1700	5
5	4605997	1720	4.9
5	4731945	1740	6.1538461538462
5	4861531	1760	5.1666666666667
5	4993227	1780	6.2222222222222
5	5126432	1800	5.3333333333333
5	5262747	1820	5.8
5	5401123	1840	5.5454545454545
5	5541868	1860	5.0384615384615
5	5684648	1880	4.7916666666667
5	5830842	1900	5.3333333333333
5	5979267	1920	5.5454545454545
5	6129517	1940	4.3333333333333
5	6282633	1960	5.0555555555556
5	6437697	1980	5.9
5	6595613	2000	4.6
6	145582	240	1.5275252316519
6	171241	260	2.1019471492361
6	198253	280	1.7915143899851
6	225426	300	1.5050420310249
6	252567	320	1.450022104164
6	279804	340	2.20510770712
6	307073	360	0.92796072713834
6	334266	380	1.7134460703207
6	361741	400	2.3868325657594
6	389233	420	1.6052797503622
6	416537	440	2.3788843832963
6	444429	460	0.51639777949432
6	472813	480	0.78173595997057
6	501674	500	1.1982893790306
6	530916	520	2.0976176963403
6	560825	540	1.9924098397912
6	591313	560	2.1033883198883
6	622448	580	2.1574085762103
6	653838	600	1.3618169680781
6	686068	620	1.6329931618555
6	719308	640	1.7197431028701
6	753306	660	2.0862360730226
6	788281	680	1.9888578520235
6	823926	700	1.5796322658258
6	860631	720	1.092906420717
6	898697	740	0.67494855771055
6	938146	760	1.5118578920369
6	978732	780	0.46291004988628
6	1020067	800	0.77849894416152
6	1062841	820	1.9611613513818
6	1106746	840	1.8771812708978
6	1151286	860	1.2632629707758
6	1197588	880	1.5118578920369
6	1244814	900	1.7564580631305
6	1292996	920	2.1201976547572
6	1342740	940	1.1208970766356
6	1393820	960	1.4540583599999
6	1446385	980	1.8194662723832
6	1499673	1000	2.5049658283437
6	1554445	1020	1.2157392722216
6	1610188	1040	0.89871703427292
6	1667616	1060	1.4090046549416
6	1726805	1080	1.4168108346482
6	1787090	1100	2.2303271003059
6	1848913	1120	1.2157392722216
6	1911814	1140	1.6966991126266
6	1976627	1160	1.0327955589886
6	2043378	1180	1.7579750255553
6	2111489	1200	1.2445533509972
6	2181638	1220	1.0801234497346
6	2254240	1240	1.9027751731836
6	2328042	1260	1.5798206649279
6	2404478	1280	1.9210612146614
6	2482389	1300	2.0389072703639
6	2562494	1320	1.7511900715418
6	2643841	1340	1.5690458125577
6	2727459	1360	1.9562310259373
6	2812947	1380	2.0389072703639
6	2900486	1400	1.4116115112961
6	2990872	1420	1.8607794065928
6	3081974	1440	1.4476993242153
6	3175623	1460	1.5296631266543
6	3271907	1480	2.045439690974
6	3369951	1500	1.3026778945579
6	3470404	1520	1.9711355849031
6	3572989	1540	1.0327955589886
6	3678878	1560	1.8410575095915
6	3787009	1580	1.8321208111548
6	3896508	1600	2.2542357790099
6	4008446	1620	1.7940071177288
6	4123560	1640	1.660321254055
6	4239808	1660	1.2631659571466
6	4359058	1680	1.5856499343442
6	4481430	1700	1.555973210431
6	4605997	1720	2.2219005615156
6	4731945	1740	0.80064076902544
6	4861531	1760	1.5788456616112
6	4993227	1780	0.94280904158206
6	5126432	1800	1.4944341180973
6	5262747	1820	1.3611140947574
6	5401123	1840	1.2993504870941
6	5541868	1860	2.068444231412
6	5684648	1880	1.8410575095915
6	5830842	1900	1.6532795690183
6	5979267	1920	1.2238608980744
6	6129517	1940	1.9534820076016
6	6282633	1960	1.9242178616479
6	6437697	1980	1.0208355710681
6	6595613	2000	2.0273985369399
7	145582	240	2.3333333333333
7	171241	260	4.4181818181818
7	198253	280	3.2095238095238
7	225426	300	2.2651515151515
7	252567	320	2.1025641025641
7	279804	340	4.8625
7	307073	360	0.86111111111111
7	334266	380	2.9358974358974
7	361741	400	5.6969696969697
7	389233	420	2.5769230769231
7	416537	440	5.6590909090909
7	444429	460	0.26666666666667
7	472813	480	0.61111111111111
7	501674	500	1.4358974358974
7	530916	520	4.4
7	560825	540	3.969696969697
7	591313	560	4.4242424242424
7	622448	580	4.6544117647059
7	653838	600	1.8545454545455
7	686068	620	2.6666666666667
7	719308	640	2.9575163398693
7	753306	660	4.352380952381
7	788281	680	3.9555555555556
7	823926	700	2.4952380952381
7	860631	720	1.1944444444444
7	898697	740	0.45555555555556
7	938146	760	2.2857142857143
7	978732	780	0.21428571428571
7	1020067	800	0.60606060606061
7	1062841	820	3.8461538461538
7	1106746	840	3.5238095238095
7	1151286	860	1.5958333333333
7	1197588	880	2.2857142857143
7	1244814	900	3.0851449275362
7	1292996	920	4.4952380952381
7	1342740	940	1.2564102564103
7	1393820	960	2.1142857142857
7	1446385	980	3.3104575163399
7	1499673	1000	6.2748538011696
7	1554445	1020	1.478021978022
7	1610188	1040	0.80769230769231
7	1667616	1060	1.9852941176471
7	1726805	1080	2.0073529411765
7	1787090	1100	4.974358974359
7	1848913	1120	1.478021978022
7	1911814	1140	2.8787878787879
7	1976627	1160	1.0666666666667
7	2043378	1180	3.0904761904762
7	2111489	1200	1.5489130434783
7	2181638	1220	1.1666666666667
7	2254240	1240	3.6205533596838
7	2328042	1260	2.4958333333333
7	2404478	1280	3.6904761904762
7	2482389	1300	4.1571428571429
7	2562494	1320	3.0666666666667
7	2643841	1340	2.4619047619048
7	2727459	1360	3.8268398268398
7	2812947	1380	4.1571428571429
7	2900486	1400	1.9926470588235
7	2990872	1420	3.4625
7	3081974	1440	2.0958333333333
7	3175623	1460	2.3398692810458
7	3271907	1480	4.1838235294118
7	3369951	1500	1.6969696969697
7	3470404	1520	3.8853754940711
7	3572989	1540	1.0666666666667
7	3678878	1560	3.3894927536232
7	3787009	1580	3.3566666666667
7	3896508	1600	5.0815789473684
7	4008446	1620	3.2184615384615
7	4123560	1640	2.7566666666667
7	4239808	1660	1.5955882352941
7	4359058	1680	2.5142857142857
7	4481430	1700	2.4210526315789
7	4605997	1720	4.9368421052632
7	4731945	1740	0.64102564102564
7	4861531	1760	2.4927536231884
7	4993227	1780	0.88888888888889
7	5126432	1800	2.2333333333333
7	5262747	1820	1.8526315789474
7	5401123	1840	1.6883116883117
7	5541868	1860	4.2784615384615
7	5684648	1880	3.3894927536232
7	5830842	1900	2.7333333333333
7	5979267	1920	1.4978354978355
7	6129517	1940	3.816091954023
7	6282633	1960	3.702614379085
7	6437697	1980	1.0421052631579
7	6595613	2000	4.1103448275862
8	145582	240	23.246753246753
8	171241	260	22.411764705882
8	198253	280	22.282608695652
8	225426	300	22.451612903226
8	252567	320	22.483870967742
8	279804	340	22.659574468085
8	307073	360	22.408602150538
8	334266	380	22.397849462366
8	361741	400	22.510638297872
8	389233	420	22.698924731183
8	416537	440	22.597826086957
8	444429	460	22.094736842105
8	472813	480	22.164948453608
8	501674	500	22.229166666667
8	530916	520	21.920792079208
8	560825	540	22.3
8	591313	560	22.376237623762
8	622448	580	22.572815533981
8	653838	600	22.747572815534
8	686068	620	22.619047619048
8	719308	640	22.878504672897
8	753306	660	23.560747663551
8	788281	680	23.781818181818
8	823926	700	24.082568807339
8	860631	720	24.972972972973
8	898697	740	24.982142857143
8	938146	760	25.736842105263
8	978732	780	26.282051282051
8	1020067	800	26.860869565217
8	1062841	820	27.627118644068
8	1106746	840	28.051282051282
8	1151286	860	28.226890756303
8	1197588	880	28.791666666667
8	1244814	900	29.155737704918
8	1292996	920	28.693548387097
8	1342740	940	29.585365853659
8	1393820	960	29.771653543307
8	1446385	980	30.171875
8	1499673	1000	30.93023255814
8	1554445	1020	30.778625954198
8	1610188	1040	31.523076923077
8	1667616	1060	31.80303030303
8	1726805	1080	32.601503759398
8	1787090	1100	32.835820895522
8	1848913	1120	33.397058823529
8	1911814	1140	34.162962962963
8	1976627	1160	34.26618705036
8	2043378	1180	34.633802816901
8	2111489	1200	36.05
8	2181638	1220	36.076923076923
8	2254240	1240	37.056338028169
8	2328042	1260	37.6
8	2404478	1280	38.204081632653
8	2482389	1300	38.809523809524
8	2562494	1320	40.047297297297
8	2643841	1340	40.046979865772
8	2727459	1360	40.873333333333
8	2812947	1380	41.256578947368
8	2900486	1400	42.361842105263
8	2990872	1420	43.313725490196
8	3081974	1440	43.153846153846
8	3175623	1460	43.993630573248
8	3271907	1480	45.126582278481
8	3369951	1500	45.61875
8	3470404	1520	46.074074074074
8	3572989	1540	46.834355828221
8	3678878	1560	47.914634146341
8	3787009	1580	48.638554216867
8	3896508	1600	49.149700598802
8	4008446	1620	49.789156626506
8	4123560	1640	50.307692307692
8	4239808	1660	50.994082840237
8	4359058	1680	51.816568047337
8	4481430	1700	52.418604651163
8	4605997	1720	52.612716763006
8	4731945	1740	52.971098265896
8	4861531	1760	53.23595505618
8	4993227	1780	53.692737430168
8	5126432	1800	54.5
8	5262747	1820	55.631284916201
8	5401123	1840	55.469613259669
8	5541868	1860	55.934065934066
8	5684648	1880	56.119565217391
8	5830842	1900	57.151351351351
8	5979267	1920	57.48128342246
8	6129517	1940	57.781914893617
8	6282633	1960	58.744680851064
8	6437697	1980	59.243386243386
8	6595613	2000	59.436842105263
9	145582	240	3.6315715177195
9	171241	260	4.5258361964736
9	198253	280	5.1340836668237
9	225426	300	4.2414008376854
9	252567	320	4.020634016696
9	279804	340	4.3836283677381
9	307073	360	4.1500040836538
9	334266	380	3.8310510107094
9	361741	400	3.9178243931156
9	389233	420	4.5701891936781
9	416537	440	3.9448388387775
9	444429	460	4.4292876431494
9	472813	480	4.8534360946034
9	501674	500	4.5014130335091
9	530916	520	4.6490497272385
9	560825	540	4.1034599837678
9	591313	560	4.8308415108519
9	622448	580	3.8389182037968
9	653838	600	4.0188732363978
9	686068	620	3.6647514145441
9	719308	640	4.3496047974323
9	753306	660	3.5771221965863
9	788281	680	3.3928738547376
9	823926	700	3.7862530103848
9	860631	720	4.2585944319255
9	898697	740	3.9909405129125
9	938146	760	5.5511341926138
9	978732	780	5.9911517427156
9	1020067	800	5.9572850235035
9	1062841	820	7.1871164529928
9	1106746	840	6.6770917603892
9	1151286	860	7.2186633989698
9	1197588	880	7.1630422077123
9	1244814	900	7.7736793588112
9	1292996	920	8.6946179215948
9	1342740	940	8.2142687024393
9	1393820	960	9.0957769517071
9	1446385	980	9.8116990871295
9	1499673	1000	9.7019537711094
9	1554445	1020	10.168798489146
9	1610188	1040	10.809280669808
9	1667616	1060	11.37657925884
9	1726805	1080	11.736978503356
9	1787090	1100	12.291077532708
9	1848913	1120	12.477701243516
9	1911814	1140	12.710441945067
9	1976627	1160	13.307715719646
9	2043378	1180	14.065943415193
9	2111489	1200	14.104096552716
9	2181638	1220	15.095040190513
9	2254240	1240	15.361725785828
9	2328042	1260	16.074652234013
9	2404478	1280	16.858776331352
9	2482389	1300	17.284220903397
9	2562494	1320	17.669426479133
9	2643841	1340	18.280596555139
9	2727459	1360	19.157873481446
9	2812947	1380	18.901100816089
9	2900486	1400	19.663914353709
9	2990872	1420	20.096631882062
9	3081974	1440	21.469604574736
9	3175623	1460	21.41156433742
9	3271907	1480	22.318406381371
9	3369951	1500	22.470349960748
9	3470404	1520	23.257285122067
9	3572989	1540	23.312494346123
9	3678878	1560	24.23793164732
9	3787009	1580	24.794710243898
9	3896508	1600	24.985689577131
9	4008446	1620	25.575748513224
9	4123560	1640	25.938572123568
9	4239808	1660	25.886312121563
9	4359058	1680	26.190160094406
9	4481430	1700	26.497032876494
9	4605997	1720	26.944500671074
9	4731945	1740	26.741751117991
9	4861531	1760	27.366325330177
9	4993227	1780	27.946186304776
9	5126432	1800	27.759510000723
9	5262747	1820	27.926233569413
9	5401123	1840	28.151088677678
9	5541868	1860	28.236687939767
9	5684648	1880	28.955908592771
9	5830842	1900	29.159024459043
9	5979267	1920	28.913914172117
9	6129517	1940	29.037874816413
9	6282633	1960	29.450923982568
9	6437697	1980	29.92853226925
9	6595613	2000	29.931910570463
10	145582	240	13.188311688312
10	171241	260	20.483193277311
10	198253	280	26.358815097946
10	225426	300	17.989481065919
10	252567	320	16.165497896213
10	279804	340	19.216197666438
10	307073	360	17.222533894343
10	334266	380	14.676951846657
10	361741	400	15.349347975292
10	389233	420	20.886629266012
10	416537	440	15.561753463927
10	444429	460	19.618589025756
10	472813	480	23.555841924399
10	501674	500	20.262719298246
10	530916	520	21.613663366337
10	560825	540	16.838383838384
10	591313	560	23.33702970297
10	622448	580	14.737292975443
10	653838	600	16.151342090234
10	686068	620	13.430402930403
10	719308	640	18.919061893846
10	753306	660	12.795803209311
10	788281	680	11.511592994162
10	823926	700	14.335711858648
10	860631	720	18.135626535627
10	898697	740	15.927606177606
10	938146	760	30.815090824406
10	978732	780	35.893899204244
10	1020067	800	35.489244851259
10	1062841	820	51.65464290888
10	1106746	840	44.583554376658
10	1151286	860	52.109101267626
10	1197588	880	51.309173669468
10	1244814	900	60.430090773608
10	1292996	920	75.596380802518
10	1342740	940	67.474210315874
10	1393820	960	82.733158355206
10	1446385	980	96.269438976378
10	1499673	1000	94.127906976744
10	1554445	1020	103.40446271286
10	1610188	1040	116.84054859869
10	1667616	1060	129.42655563266
10	1726805	1080	137.75666438824
10	1787090	1100	151.07058691505
10	1848913	1120	155.69302832244
10	1911814	1140	161.55533443892
10	1976627	1160	177.0952976749
10	2043378	1180	197.85076415942
10	2111489	1200	198.92553956835
10	2181638	1220	227.8602383532
10	2254240	1240	235.98261911897
10	2328042	1260	258.39444444444
10	2404478	1280	284.21833939055
10	2482389	1300	298.74429223744
10	2562494	1320	312.20863210149
10	2643841	1340	334.18021041175
10	2727459	1360	367.0241163311
10	2812947	1380	357.25161205995
10	2900486	1400	386.66952771
10	2990872	1420	403.8746130031
10	3081974	1440	460.94392059553
10	3175623	1460	458.45508737547
10	3271907	1480	498.11126340402
10	3369951	1500	504.91662735849
10	3470404	1520	540.90131124914
10	3572989	1540	543.47239263804
10	3678878	1560	587.47733054018
10	3787009	1580	614.77765607886
10	3896508	1600	624.28468364476
10	4008446	1620	654.11891201168
10	4123560	1640	672.80952380952
10	4239808	1660	670.101155255
10	4359058	1680	685.92448577064
10	4481430	1700	702.09275125799
10	4605997	1720	726.0061164135
10	4731945	1740	715.12125285657
10	4861531	1760	748.91576207706
10	4993227	1780	780.98932898123
10	5126432	1800	770.59039548023
10	5262747	1820	779.87452137342
10	5401123	1840	792.48379373849
10	5541868	1860	797.31054580778
10	5684648	1880	838.44464243288
10	5830842	1900	850.24870740306
10	5979267	1920	836.01443275257
10	6129517	1940	843.19817385368
10	6282633	1960	867.35692342701
10	6437697	1980	895.71704379151
10	6595613	2000	895.91927039822
11	145582	240	321.60086411632
11	171241	260	507.73679348174
11	198253	280	713.21518302458
11	225426	300	566.66948682583
11	252567	320	603.0520814034
11	279804	340	747.01675295134
11	307073	360	426.1112443683
11	334266	380	620.01654600024
11	361741	400	577.39450573052
11	389233	420	609.88495016968
11	416537	440	560.9900073522
11	444429	460	284.75368812969
11	472813	480	425.44243853683
11	501674	500	598.90684174647
11	530916	520	477.30016627142
11	560825	540	566.38584223016
11	591313	560	563.37576838027
11	622448	580	814.24084748095
11	653838	600	517.33002596311
11	686068	620	756.97590513423
11	719308	640	857.29604497053
11	753306	660	711.56941657095
11	788281	680	469.30514713398
11	823926	700	705.24654338612
11	860631	720	432.12787740182
11	898697	740	466.83364192485
11	938146	760	658.25133389847
11	978732	780	382.35617990836
11	1020067	800	568.19153531005
11	1062841	820	678.61288735503
11	1106746	840	705.03157056067
11	1151286	860	766.96848934097
11	1197588	880	662.69769154438
11	1244814	900	1153.9274223929
11	1292996	920	723.72052394739
11	1342740	940	622.71171784616
11	1393820	960	722.19840759341
11	1446385	980	853.95747014081
11	1499673	1000	913.73582916483
11	1554445	1020	682.86899719026
11	1610188	1040	629.41155416359
11	1667616	1060	822.33517083142
11	1726805	1080	820.12852304977
11	1787090	1100	621.69053755862
11	1848913	1120	671.95567773798
11	1911814	1140	568.35662997705
11	1976627	1160	725.66028734717
11	2043378	1180	1010.9607919879
11	2111489	1200	1171.6809379668
11	2181638	1220	624.5663007452
11	2254240	1240	1118.581790531
11	2328042	1260	794.89763059995
11	2404478	1280	1029.5327032405
11	2482389	1300	1025.7734286535
11	2562494	1320	775.97417766155
11	2643841	1340	1033.4079577179
11	2727459	1360	1061.6960454813
11	2812947	1380	1021.194514882
11	2900486	1400	832.41157357237
11	2990872	1420	774.30063347988
11	3081974	1440	772.83140262147
11	3175623	1460	875.95340886923
11	3271907	1480	840.52068046619
11	3369951	1500	602.47928089888
11	3470404	1520	1094.312843363
11	3572989	1540	489.28047901354
11	3678878	1560	1171.2177784402
11	3787009	1580	1236.277534053
11	3896508	1600	966.90361425509
11	4008446	1620	1283.4462611587
11	4123560	1640	1207.1569357067
11	4239808	1660	833.46379779049
11	4359058	1680	1013.670966894
11	4481430	1700	967.78635305975
11	4605997	1720	970.26367184259
11	4731945	1740	639.91044991252
11	4861531	1760	1179.5793445322
11	4993227	1780	875.43105880525
11	5126432	1800	1032.3795551639
11	5262747	1820	980.27526531314
11	5401123	1840	1086.5139564444
11	5541868	1860	1271.1810746024
11	5684648	1880	1170.7313876565
11	5830842	1900	1028.750826922
11	5979267	1920	1076.2361219128
11	6129517	1940	1463.3281925072
11	6282633	1960	878.70058339726
11	6437697	1980	980.05011489648
11	6595613	2000	1461.2468965116
12	145582	240	45.942980588045
12	171241	260	46.157890316522
12	198253	280	47.547678868305
12	225426	300	47.222457235486
12	252567	320	46.388621646415
12	279804	340	46.688547059459
12	307073	360	47.3456938187
12	334266	380	47.693580461557
12	361741	400	48.116208810876
12	389233	420	46.914226936129
12	416537	440	46.74916727935
12	444429	460	47.458948021615
12	472813	480	47.271382059647
12	501674	500	46.06975705742
12	530916	520	47.730016627142
12	560825	540	47.198820185847
12	591313	560	46.947980698356
12	622448	580	47.896520440056
12	653838	600	47.030002360283
12	686068	620	47.310994070889
12	719308	640	47.627558053918
12	753306	660	47.43796110473
12	788281	680	46.930514713398
12	823926	700	47.016436225741
12	860631	720	48.014208600202
12	898697	740	46.683364192485
12	938146	760	47.017952421319
12	978732	780	47.794522488545
12	1020067	800	47.349294609171
12	1062841	820	48.472349096788
12	1106746	840	47.002104704045
12	1151286	860	47.935530583811
12	1197588	880	47.335549396027
12	1244814	900	48.08030926637
12	1292996	920	48.248034929826
12	1342740	940	47.900901372782
12	1393820	960	48.146560506228
12	1446385	980	47.442081674489
12	1499673	1000	48.091359429728
12	1554445	1020	48.776356942162
12	1610188	1040	48.416273397199
12	1667616	1060	48.37265710773
12	1726805	1080	48.242854297045
12	1787090	1100	47.822349042971
12	1848913	1120	47.996834124141