file 145670 1427464039                                          
version 2
run statisticRVV-182-20150327-13:14:29-16732
attr c 7
attr configname statisticRVV
attr datetime 20150327-13:14:29
attr experiment statisticRVV
attr inifile omnetpp.ini
attr iterationvars "$sc=\"erlangen-medium.launchd.xml\", $p=1/8, $c=7"
attr iterationvars2 "$sc=\"erlangen-medium.launchd.xml\", $p=1/8, $c=7, $repetition=2"
attr measurement "$sc=\"erlangen-medium.launchd.xml\", $p=1/8, $c=7"
attr network RSUExampleScenario
attr p 1/8
attr processid 16732
attr repetition 2
attr replication #2
attr resultdir results
attr runnumber 182
attr sc "\"erlangen-medium.launchd.xml\""
attr seedset 182

vector 0  RSUExampleScenario.rsu[0].appl  Number_CH  ETV
vector 1  RSUExampleScenario.rsu[0].appl  Number_ON  ETV
vector 2  RSUExampleScenario.rsu[0].appl  Number_FN  ETV
vector 3  RSUExampleScenario.rsu[0].appl  Number_CH_Losts  ETV
vector 4  RSUExampleScenario.rsu[0].appl  Number_CH_Losts  ETV
vector 5  RSUExampleScenario.rsu[0].appl  Mean_Cluster_Size  ETV
vector 6  RSUExampleScenario.rsu[0].appl  StdDev_Cluster_Size  ETV
vector 7  RSUExampleScenario.rsu[0].appl  Variance_Cluster_Size  ETV
vector 8  RSUExampleScenario.rsu[0].appl  Mean_Neighbors  ETV
vector 9  RSUExampleScenario.rsu[0].appl  StdDev_Neighbors  ETV
vector 10  RSUExampleScenario.rsu[0].appl  Variance_Neighbors  ETV
vector 11  RSUExampleScenario.rsu[0].appl  Total_CH_Utility  ETV
vector 12  RSUExampleScenario.rsu[0].appl  Mean_CH_Utility  ETV
vector 13  RSUExampleScenario.rsu[0].appl  StdDev_CH_Utility  ETV
vector 14  RSUExampleScenario.rsu[0].appl  Variance_CH_Utility  ETV
vector 15  RSUExampleScenario.rsu[0].appl  Total_exp_CH_Utility  ETV
vector 16  RSUExampleScenario.rsu[0].appl  Mean_exp_CH_Utility  ETV
vector 17  RSUExampleScenario.rsu[0].appl  StdDev_exp_CH_Utility  ETV
vector 18  RSUExampleScenario.rsu[0].appl  Variance_exp_CH_Utility  ETV
vector 19  RSUExampleScenario.rsu[0].appl  Total_ON_Utility  ETV
vector 20  RSUExampleScenario.rsu[0].appl  Mean_ON_Utility  ETV
vector 21  RSUExampleScenario.rsu[0].appl  StdDev_ON_Utility  ETV
vector 22  RSUExampleScenario.rsu[0].appl  Variance_ON_Utility  ETV
vector 23  RSUExampleScenario.rsu[0].appl  Total_exp_ON_Utility  ETV
vector 24  RSUExampleScenario.rsu[0].appl  Mean_exp_ON_Utility  ETV
vector 25  RSUExampleScenario.rsu[0].appl  StdDev_exp_ON_Utility  ETV
vector 26  RSUExampleScenario.rsu[0].appl  Variance_exp_ON_Utility  ETV
0	2432 1624 145383 6851694 240 2000 89 4 30 1507 27533
1	76890 1651 145383 6851694 240 2000 89 23 130 7587 686675
2	78541 1621 145383 6851694 240 2000 89 0 87 3256 153856
3	80162 1537 145383 6851694 240 2000 89 0 3 45 67
4	81699 1620 145383 6851694 240 2000 89 0 87 3202 150550
5	83319 2530 145383 6851694 240 2000 89 3.7692307692308 6.7777777777778 455.56384572159 2369.3415661901
6	85849 2767 145383 6851694 240 2000 89 0.4409585518441 2.3155787099351 141.088905052 238.14479920368
7	88616 2727 145383 6851694 240 2000 89 0.19444444444444 5.3619047619048 238.14479920368 768.94706719891
8	91343 2743 145383 6851694 240 2000 89 21.876288659794 60.748717948718 3316.8047232297 138109.01386837
9	94086 2771 145383 6851694 240 2000 89 3.0304941704597 31.418089147296 1343.4197057869 28620.038202092
10	96857 2856 145383 6851694 240 2000 89 9.1838949171902 987.09632566746 28620.038202092 18452834.403371
11	99713 2865 145383 6851694 240 2000 89 189.61074040347 1479.6546748341 72570.070336485 64126622.358464
12	102578 2862 145383 6851694 240 2000 89 46.431445285163 49.721324112438 4276.704994358 205556.77304651
13	105440 2864 145383 6851694 240 2000 89 0.83808478989704 2.6986239656337 168.11409179253 331.93865620673
14	108304 2861 145383 6851694 240 2000 89 0.70238611505677 7.2825713078928 331.93865620673 1426.8123026405
15	111165 2862 145383 6851694 240 2000 89 180.92902598436 1456.3368602554 70521.985304425 60580329.939163
16	114027 2862 145383 6851694 240 2000 89 44.722671406906 46.291212885975 4047.8788426044 184114.2556231
17	116889 2899 145383 6851694 240 2000 89 0.26586836910139 2.0163651963519 88.306208521567 95.14774498939
18	119788 2901 145383 6851694 240 2000 89 0.070685989688635 4.0657286050594 95.14774498939 132.09855748827
19	122689 2861 145383 6851694 240 2000 89 1090.0614468254 6325.6282105524 365443.08429427 1599582212.6103
20	125550 2858 145383 6851694 240 2000 89 46.383157627728 49.308110450392 4277.5117478008 205627.75971321
21	128408 2865 145383 6851694 240 2000 89 1.6506491007302 3.4926562340098 229.43723781044 599.26845680838
22	131273 2868 145383 6851694 240 2000 89 2.7246424537415 12.198647568967 599.26845680838 4240.4318613535
23	134141 2863 145383 6851694 240 2000 89 2864.9329746749 7845.4341526701 491531.54209876 2871246822.9982
24	137004 2860 145383 6851694 240 2000 89 44.764577729296 45.78706975671 4051.746513923 184461.02600329
25	139864 2905 145383 6851694 240 2000 89 0.39071285586829 1.5906937759296 92.178443022083 99.788438406327
26	142769 2901 145383 6851694 240 2000 89 0.15265653574075 2.530306688781 99.788438406327 130.05317153061
