file 72454 1427452738                                           
version 2
run statisticRVV-157-20150327-09:49:40-16420
attr c 9
attr configname statisticRVV
attr datetime 20150327-09:49:40
attr experiment statisticRVV
attr inifile omnetpp.ini
attr iterationvars "$sc=\"erlangen-medium.launchd.xml\", $p=1/10, $c=9"
attr iterationvars2 "$sc=\"erlangen-medium.launchd.xml\", $p=1/10, $c=9, $repetition=7"
attr measurement "$sc=\"erlangen-medium.launchd.xml\", $p=1/10, $c=9"
attr network RSUExampleScenario
attr p 1/10
attr processid 16420
attr repetition 7
attr replication #7
attr resultdir results
attr runnumber 157
attr sc "\"erlangen-medium.launchd.xml\""
attr seedset 157

vector 0  RSUExampleScenario.rsu[0].appl  Number_CH  ETV
vector 1  RSUExampleScenario.rsu[0].appl  Number_ON  ETV
vector 2  RSUExampleScenario.rsu[0].appl  Number_FN  ETV
vector 3  RSUExampleScenario.rsu[0].appl  Number_CH_Losts  ETV
vector 4  RSUExampleScenario.rsu[0].appl  Number_CH_Losts  ETV
vector 5  RSUExampleScenario.rsu[0].appl  Mean_Cluster_Size  ETV
vector 6  RSUExampleScenario.rsu[0].appl  StdDev_Cluster_Size  ETV
vector 7  RSUExampleScenario.rsu[0].appl  Variance_Cluster_Size  ETV
vector 8  RSUExampleScenario.rsu[0].appl  Mean_Neighbors  ETV
vector 9  RSUExampleScenario.rsu[0].appl  StdDev_Neighbors  ETV
vector 10  RSUExampleScenario.rsu[0].appl  Variance_Neighbors  ETV
vector 11  RSUExampleScenario.rsu[0].appl  Total_CH_Utility  ETV
vector 12  RSUExampleScenario.rsu[0].appl  Mean_CH_Utility  ETV
vector 13  RSUExampleScenario.rsu[0].appl  StdDev_CH_Utility  ETV
vector 14  RSUExampleScenario.rsu[0].appl  Variance_CH_Utility  ETV
vector 15  RSUExampleScenario.rsu[0].appl  Total_exp_CH_Utility  ETV
vector 16  RSUExampleScenario.rsu[0].appl  Mean_exp_CH_Utility  ETV
vector 17  RSUExampleScenario.rsu[0].appl  StdDev_exp_CH_Utility  ETV
vector 18  RSUExampleScenario.rsu[0].appl  Variance_exp_CH_Utility  ETV
vector 19  RSUExampleScenario.rsu[0].appl  Total_ON_Utility  ETV
vector 20  RSUExampleScenario.rsu[0].appl  Mean_ON_Utility  ETV
vector 21  RSUExampleScenario.rsu[0].appl  StdDev_ON_Utility  ETV
vector 22  RSUExampleScenario.rsu[0].appl  Variance_ON_Utility  ETV
vector 23  RSUExampleScenario.rsu[0].appl  Total_exp_ON_Utility  ETV
vector 24  RSUExampleScenario.rsu[0].appl  Mean_exp_ON_Utility  ETV
vector 25  RSUExampleScenario.rsu[0].appl  StdDev_exp_ON_Utility  ETV
vector 26  RSUExampleScenario.rsu[0].appl  Variance_exp_ON_Utility  ETV
0	2436 1607 145642 6592950 240 2000 89 4 26 1188 17806
1	4043 1655 145642 6592950 240 2000 89 36 143 7731 731245
2	5698 1623 145642 6592950 240 2000 89 8 103 3227 159701
3	7321 1536 145642 6592950 240 2000 89 0 3 36 48
4	8857 1623 145642 6592950 240 2000 89 7 103 3181 156359
5	10480 2352 145642 6592950 240 2000 89 4.6666666666667 9 597.59818885012 4112.667391842
6	12832 2711 145642 6592950 240 2000 89 0 3.0472470011002 178.33095886169 404.19187173123
7	15543 2637 145642 6592950 240 2000 89 0 9.2857142857143 404.19187173123 2417.8921630798
8	18180 2673 145642 6592950 240 2000 89 21.851063829787 59.575916230366 3240.7892923848 131920.31026393
9	20853 2774 145642 6592950 240 2000 89 2.9754309902463 30.500616837133 1291.8431570495 26733.10043135
10	23627 2867 145642 6592950 240 2000 89 8.8531895777179 930.28762744558 26733.10043135 16432228.630352
11	26494 2863 145642 6592950 240 2000 89 186.43191186576 1285.9745734842 57083.696324571 41361189.534323
12	29357 2857 145642 6592950 240 2000 89 45.932117485314 49.683277115096 4262.2904648996 204194.45328496
13	32214 2866 145642 6592950 240 2000 89 0.35933280541157 3.29110597461 164.95341987062 332.26921878493
14	35080 2865 145642 6592950 240 2000 89 0.12912006504495 10.831378536114 332.26921878493 1616.1344725611
15	37945 2860 145642 6592950 240 2000 89 180.35816317983 1229.053546112 55681.801379912 39126274.876223
16	40805 2864 145642 6592950 240 2000 89 44.707481420879 46.490460481672 4052.5282162545 184540.27330601
17	43669 2900 145642 6592950 240 2000 89 0.25457239832276 1.6266751495273 88.983239069191 98.544044110352
18	46569 2910 145642 6592950 240 2000 89 0.0648071059878 2.6460720420897 98.544044110352 146.68150730921
19	49479 2865 145642 6592950 240 2000 89 1677.8872067918 7037.6465225176 370720.4532993 1691818419.9629
20	52344 2863 145642 6592950 240 2000 89 45.932117485314 49.301257025051 4252.9396912005 203294.51037099
21	55207 2857 145642 6592950 240 2000 89 1.454935067045 3.4894791077178 235.8557734896 636.38001091257
22	58064 2858 145642 6592950 240 2000 89 2.1168360493172 12.176464443199 636.38001091257 4844.9306595965
23	60922 2863 145642 6592950 240 2000 89 3223.8126317655 8152.6434392454 496898.65114555 2932086582.5693
24	63785 2861 145642 6592950 240 2000 89 44.775175441187 45.750717998395 4049.3629795731 184244.58089392
25	66646 2901 145642 6592950 240 2000 89 0.33467859073561 1.5367874737397 90.811458400078 96.839323112486
26	69547 2907 145642 6592950 240 2000 89 0.11200975909677 2.3617157394432 96.839323112486 121.62115916881
