version 2
run statisticRVV-123-20150325-06:58:19-4552
attr c 14
attr configname statisticRVV
attr datetime 20150325-06:58:19
attr experiment statisticRVV
attr inifile omnetpp.ini
attr iterationvars "$sc=\"erlangen-medium.launchd.xml\", $p=1/15, $c=14"
attr iterationvars2 "$sc=\"erlangen-medium.launchd.xml\", $p=1/15, $c=14, $repetition=3"
attr measurement "$sc=\"erlangen-medium.launchd.xml\", $p=1/15, $c=14"
attr network RSUExampleScenario
attr p 1/15
attr processid 4552
attr repetition 3
attr replication #3
attr resultdir results
attr runnumber 123
attr sc "\"erlangen-medium.launchd.xml\""
attr seedset 123

vector 0  RSUExampleScenario.rsu[0].appl  Number_CH  ETV
vector 1  RSUExampleScenario.rsu[0].appl  Number_ON  ETV
vector 2  RSUExampleScenario.rsu[0].appl  Number_FN  ETV
vector 3  RSUExampleScenario.rsu[0].appl  Number_CH_Losts  ETV
vector 4  RSUExampleScenario.rsu[0].appl  Mean_Cluster_Size  ETV
vector 5  RSUExampleScenario.rsu[0].appl  StdDev_Cluster_Size  ETV
vector 6  RSUExampleScenario.rsu[0].appl  Variance_Cluster_Size  ETV
vector 7  RSUExampleScenario.rsu[0].appl  Mean_Neighbors  ETV
vector 8  RSUExampleScenario.rsu[0].appl  StdDev_Neighbors  ETV
vector 9  RSUExampleScenario.rsu[0].appl  Variance_Neighbors  ETV
vector 10  RSUExampleScenario.rsu[0].appl  Total_CH_Utility  ETV
vector 11  RSUExampleScenario.rsu[0].appl  Mean_CH_Utility  ETV
vector 12  RSUExampleScenario.rsu[0].appl  StdDev_CH_Utility  ETV
vector 13  RSUExampleScenario.rsu[0].appl  Variance_CH_Utility  ETV
vector 14  RSUExampleScenario.rsu[0].appl  Total_exp_CH_Utility  ETV
vector 15  RSUExampleScenario.rsu[0].appl  Mean_exp_CH_Utility  ETV
vector 16  RSUExampleScenario.rsu[0].appl  StdDev_exp_CH_Utility  ETV
vector 17  RSUExampleScenario.rsu[0].appl  Variance_exp_CH_Utility  ETV
vector 18  RSUExampleScenario.rsu[0].appl  Total_ON_Utility  ETV
vector 19  RSUExampleScenario.rsu[0].appl  Mean_ON_Utility  ETV
vector 20  RSUExampleScenario.rsu[0].appl  StdDev_ON_Utility  ETV
vector 21  RSUExampleScenario.rsu[0].appl  Variance_ON_Utility  ETV
vector 22  RSUExampleScenario.rsu[0].appl  Total_exp_ON_Utility  ETV
vector 23  RSUExampleScenario.rsu[0].appl  Mean_exp_ON_Utility  ETV
vector 24  RSUExampleScenario.rsu[0].appl  StdDev_exp_ON_Utility  ETV
vector 25  RSUExampleScenario.rsu[0].appl  Variance_exp_ON_Utility  ETV
0	146109	240	3
0	172243	260	4
0	199257	280	4
0	226781	300	5
0	254242	320	3
0	281446	340	3
0	308766	360	4
0	336092	380	1
0	363999	400	3
0	392643	420	9
0	421743	440	3
0	451129	460	3
0	481281	480	5
0	511991	500	4
0	543658	520	4
0	575852	540	4
0	608817	560	2
0	642498	580	5
0	677304	600	5
0	712678	620	6
0	749566	640	4
0	787942	660	6
0	826939	680	5
0	867125	700	2
0	908828	720	3
0	951419	740	9
0	995687	760	9
0	1040945	780	2
0	1087117	800	10
0	1134133	820	2
0	1182328	840	6
0	1232259	860	6
0	1283319	880	6
0	1334909	900	7
0	1388105	920	9
0	1442560	940	7
0	1498559	960	5
0	1555697	980	9
0	1614755	1000	9
0	1675018	1020	6
0	1736559	1040	2
0	1799626	1060	6
0	1864497	1080	4
0	1930694	1100	5
0	1998821	1120	8
0	2069219	1140	11
0	2141261	1160	3
0	2215142	1180	8
0	2291028	1200	8
0	2369125	1220	5
0	2448588	1240	12
0	2531259	1260	8
0	2615169	1280	10
0	2700950	1300	9
0	2789103	1320	7
0	2879342	1340	7
0	2971705	1360	6
0	3066098	1380	12
0	3162420	1400	11
0	3260591	1420	14
0	3361429	1440	6
0	3464566	1460	7
0	3569002	1480	10
0	3676720	1500	4
0	3786444	1520	8
0	3898658	1540	7
0	4012814	1560	12
0	4129597	1580	5
0	4248203	1600	6
0	4369634	1620	11
0	4493721	1640	9
0	4619876	1660	13
0	4747795	1680	11
0	4878413	1700	10
0	5011275	1720	13
0	5146971	1740	11
0	5284754	1760	12
0	5425150	1780	10
0	5567832	1800	7
0	5713098	1820	8
0	5860786	1840	9
0	6011707	1860	8
0	6165139	1880	10
0	6321434	1900	3
0	6479890	1920	12
0	6640810	1940	10
0	6804176	1960	9
0	6970712	1980	12
0	7140119	2000	9
1	146109	240	5
1	172243	260	6
1	199257	280	4
1	226781	300	6
1	254242	320	4
1	281446	340	4
1	308766	360	6
1	336092	380	1
1	363999	400	3
1	392643	420	9
1	421743	440	5
1	451129	460	5
1	481281	480	6
1	511991	500	5
1	543658	520	5
1	575852	540	6
1	608817	560	2
1	642498	580	8
1	677304	600	6
1	712678	620	7
1	749566	640	8
1	787942	660	8
1	826939	680	6
1	867125	700	2
1	908828	720	4
1	951419	740	11
1	995687	760	14
1	1040945	780	2
1	1087117	800	15
1	1134133	820	3
1	1182328	840	6
1	1232259	860	8
1	1283319	880	6
1	1334909	900	11
1	1388105	920	11
1	1442560	940	10
1	1498559	960	7
1	1555697	980	14
1	1614755	1000	12
1	1675018	1020	10
1	1736559	1040	3
1	1799626	1060	7
1	1864497	1080	5
1	1930694	1100	7
1	1998821	1120	11
1	2069219	1140	15
1	2141261	1160	4
1	2215142	1180	13
1	2291028	1200	12
1	2369125	1220	8
1	2448588	1240	18
1	2531259	1260	11
1	2615169	1280	14
1	2700950	1300	13
1	2789103	1320	13
1	2879342	1340	9
1	2971705	1360	10
1	3066098	1380	17
1	3162420	1400	16
1	3260591	1420	18
1	3361429	1440	9
1	3464566	1460	11
1	3569002	1480	15
1	3676720	1500	6
1	3786444	1520	13
1	3898658	1540	9
1	4012814	1560	16
1	4129597	1580	8
1	4248203	1600	9
1	4369634	1620	14
1	4493721	1640	12
1	4619876	1660	17
1	4747795	1680	15
1	4878413	1700	15
1	5011275	1720	19
1	5146971	1740	18
1	5284754	1760	17
1	5425150	1780	13
1	5567832	1800	11
1	5713098	1820	10
1	5860786	1840	14
1	6011707	1860	11
1	6165139	1880	17
1	6321434	1900	4
1	6479890	1920	19
1	6640810	1940	12
1	6804176	1960	15
1	6970712	1980	18
1	7140119	2000	12
2	146109	240	72
2	172243	260	76
2	199257	280	84
2	226781	300	84
2	254242	320	87
2	281446	340	87
2	308766	360	84
2	336092	380	92
2	363999	400	90
2	392643	420	80
2	421743	440	90
2	451129	460	90
2	481281	480	90
2	511991	500	91
2	543658	520	95
2	575852	540	95
2	608817	560	103
2	642498	580	95
2	677304	600	98
2	712678	620	96
2	749566	640	99
2	787942	660	99
2	826939	680	103
2	867125	700	110
2	908828	720	108
2	951419	740	96
2	995687	760	97
2	1040945	780	117
2	1087117	800	95
2	1134133	820	118
2	1182328	840	110
2	1232259	860	111
2	1283319	880	114
2	1334909	900	111
2	1388105	920	109
2	1442560	940	113
2	1498559	960	119
2	1555697	980	109
2	1614755	1000	114
2	1675018	1020	118
2	1736559	1040	132
2	1799626	1060	126
2	1864497	1080	129
2	1930694	1100	128
2	1998821	1120	122
2	2069219	1140	116
2	2141261	1160	135
2	2215142	1180	125
2	2291028	1200	128
2	2369125	1220	135
2	2448588	1240	118
2	2531259	1260	130
2	2615169	1280	126
2	2700950	1300	130
2	2789103	1320	133
2	2879342	1340	136
2	2971705	1360	139
2	3066098	1380	129
2	3162420	1400	132
2	3260591	1420	128
2	3361429	1440	147
2	3464566	1460	144
2	3569002	1480	138
2	3676720	1500	153
2	3786444	1520	145
2	3898658	1540	153
2	4012814	1560	140
2	4129597	1580	155
2	4248203	1600	155
2	4369634	1620	147
2	4493721	1640	153
2	4619876	1660	145
2	4747795	1680	150
2	4878413	1700	152
2	5011275	1720	145
2	5146971	1740	152
2	5284754	1760	152
2	5425150	1780	160
2	5567832	1800	166
2	5713098	1820	167
2	5860786	1840	162
2	6011707	1860	169
2	6165139	1880	162
2	6321434	1900	182
2	6479890	1920	160
2	6640810	1940	169
2	6804176	1960	169
2	6970712	1980	166
2	7140119	2000	176
3	146109	240	2
3	172243	260	1
3	199257	280	2
3	226781	300	1
3	254242	320	0
3	281446	340	0
3	308766	360	1
3	336092	380	2
3	363999	400	1
3	392643	420	1
3	421743	440	1
3	451129	460	2
3	481281	480	0
3	511991	500	2
3	543658	520	2
3	575852	540	1
3	608817	560	1
3	642498	580	2
3	677304	600	2
3	712678	620	2
3	749566	640	0
3	787942	660	1
3	826939	680	0
3	867125	700	1
3	908828	720	0
3	951419	740	2
3	995687	760	2
3	1040945	780	4
3	1087117	800	0
3	1134133	820	1
3	1182328	840	2
3	1232259	860	0
3	1283319	880	2
3	1334909	900	1
3	1388105	920	3
3	1442560	940	2
3	1498559	960	1
3	1555697	980	0
3	1614755	1000	4
3	1675018	1020	3
3	1736559	1040	1
3	1799626	1060	3
3	1864497	1080	4
3	1930694	1100	5
3	1998821	1120	2
3	2069219	1140	2
3	2141261	1160	2
3	2215142	1180	1
3	2291028	1200	1
3	2369125	1220	4
3	2448588	1240	1
3	2531259	1260	1
3	2615169	1280	4
3	2700950	1300	0
3	2789103	1320	3
3	2879342	1340	2
3	2971705	1360	1
3	3066098	1380	2
3	3162420	1400	0
3	3260591	1420	1
3	3361429	1440	3
3	3464566	1460	5
3	3569002	1480	0
3	3676720	1500	2
3	3786444	1520	5
3	3898658	1540	3
3	4012814	1560	4
3	4129597	1580	1
3	4248203	1600	2
3	4369634	1620	2
3	4493721	1640	5
3	4619876	1660	2
3	4747795	1680	1
3	4878413	1700	0
3	5011275	1720	2
3	5146971	1740	3
3	5284754	1760	2
3	5425150	1780	2
3	5567832	1800	3
3	5713098	1820	2
3	5860786	1840	3
3	6011707	1860	3
3	6165139	1880	1
3	6321434	1900	1
3	6479890	1920	2
3	6640810	1940	2
3	6804176	1960	1
3	6970712	1980	3
3	7140119	2000	3
4	146109	240	1.6666666666667
4	172243	260	1.5
4	199257	280	1
4	226781	300	1.2
4	254242	320	1.3333333333333
4	281446	340	1.3333333333333
4	308766	360	1.5
4	336092	380	1
4	363999	400	1
4	392643	420	1
4	421743	440	1.6666666666667
4	451129	460	1.6666666666667
4	481281	480	1.2
4	511991	500	1.25
4	543658	520	1.25
4	575852	540	1.5
4	608817	560	1
4	642498	580	1.6
4	677304	600	1.2
4	712678	620	1.1666666666667
4	749566	640	2
4	787942	660	1.3333333333333
4	826939	680	1.2
4	867125	700	1
4	908828	720	1.3333333333333
4	951419	740	1.2222222222222
4	995687	760	1.5555555555556
4	1040945	780	1
4	1087117	800	1.5
4	1134133	820	1.5
4	1182328	840	1
4	1232259	860	1.3333333333333
4	1283319	880	1
4	1334909	900	1.5714285714286
4	1388105	920	1.2222222222222
4	1442560	940	1.4285714285714
4	1498559	960	1.4
4	1555697	980	1.5555555555556
4	1614755	1000	1.3333333333333
4	1675018	1020	1.6666666666667
4	1736559	1040	1.5
4	1799626	1060	1.1666666666667
4	1864497	1080	1.25
4	1930694	1100	1.4
4	1998821	1120	1.375
4	2069219	1140	1.3636363636364
4	2141261	1160	1.3333333333333
4	2215142	1180	1.625
4	2291028	1200	1.5
4	2369125	1220	1.6
4	2448588	1240	1.5
4	2531259	1260	1.375
4	2615169	1280	1.4
4	2700950	1300	1.4444444444444
4	2789103	1320	1.8571428571429
4	2879342	1340	1.2857142857143
4	2971705	1360	1.6666666666667
4	3066098	1380	1.4166666666667
4	3162420	1400	1.4545454545455
4	3260591	1420	1.2857142857143
4	3361429	1440	1.5
4	3464566	1460	1.5714285714286
4	3569002	1480	1.5
4	3676720	1500	1.5
4	3786444	1520	1.625
4	3898658	1540	1.2857142857143
4	4012814	1560	1.3333333333333
4	4129597	1580	1.6
4	4248203	1600	1.5
4	4369634	1620	1.2727272727273
4	4493721	1640	1.3333333333333
4	4619876	1660	1.3076923076923
4	4747795	1680	1.3636363636364
4	4878413	1700	1.5
4	5011275	1720	1.4615384615385
4	5146971	1740	1.6363636363636
4	5284754	1760	1.4166666666667
4	5425150	1780	1.3
4	5567832	1800	1.5714285714286
4	5713098	1820	1.25
4	5860786	1840	1.5555555555556
4	6011707	1860	1.375
4	6165139	1880	1.7
4	6321434	1900	1.3333333333333
4	6479890	1920	1.5833333333333
4	6640810	1940	1.2
4	6804176	1960	1.6666666666667
4	6970712	1980	1.5
4	7140119	2000	1.3333333333333
5	146109	240	0.57735026918963
5	172243	260	0.57735026918963
5	199257	280	0
5	226781	300	0.44721359549996
5	254242	320	0.57735026918963
5	281446	340	0.57735026918963
5	308766	360	0.57735026918963
5	336092	380	nan
5	363999	400	0
5	392643	420	0
5	421743	440	0.57735026918963
5	451129	460	0.57735026918963
5	481281	480	0.44721359549996
5	511991	500	0.5
5	543658	520	0.5
5	575852	540	0.57735026918963
5	608817	560	0
5	642498	580	0.54772255750517
5	677304	600	0.44721359549996
5	712678	620	0.40824829046386
5	749566	640	0
5	787942	660	0.51639777949432
5	826939	680	0.44721359549996
5	867125	700	0
5	908828	720	0.57735026918963
5	951419	740	0.4409585518441
5	995687	760	0.52704627669473
5	1040945	780	0
5	1087117	800	0.70710678118655
5	1134133	820	0.70710678118655
5	1182328	840	0
5	1232259	860	0.51639777949432
5	1283319	880	0
5	1334909	900	0.53452248382485
5	1388105	920	0.4409585518441
5	1442560	940	0.53452248382485
5	1498559	960	0.54772255750517
5	1555697	980	0.52704627669473
5	1614755	1000	0.5
5	1675018	1020	0.51639777949432
5	1736559	1040	0.70710678118655
5	1799626	1060	0.40824829046386
5	1864497	1080	0.5
5	1930694	1100	0.54772255750517
5	1998821	1120	0.51754916950677
5	2069219	1140	0.50452497910951
5	2141261	1160	0.57735026918963
5	2215142	1180	0.51754916950677
5	2291028	1200	0.53452248382485
5	2369125	1220	0.54772255750517
5	2448588	1240	0.52223296786709
5	2531259	1260	0.51754916950677
5	2615169	1280	0.51639777949432
5	2700950	1300	0.52704627669473
5	2789103	1320	0.37796447300923
5	2879342	1340	0.48795003647427
5	2971705	1360	0.51639777949432
5	3066098	1380	0.51492865054444
5	3162420	1400	0.52223296786709
5	3260591	1420	0.4688072309385
5	3361429	1440	0.54772255750517
5	3464566	1460	0.53452248382485
5	3569002	1480	0.52704627669473
5	3676720	1500	0.57735026918963
5	3786444	1520	0.51754916950677
5	3898658	1540	0.48795003647427
5	4012814	1560	0.49236596391733
5	4129597	1580	0.54772255750517
5	4248203	1600	0.54772255750517
5	4369634	1620	0.46709936649691
5	4493721	1640	0.5
5	4619876	1660	0.48038446141526
5	4747795	1680	0.50452497910951
5	4878413	1700	0.52704627669473
5	5011275	1720	0.51887452166277
5	5146971	1740	0.50452497910951
5	5284754	1760	0.51492865054444
5	5425150	1780	0.48304589153965
5	5567832	1800	0.53452248382485
5	5713098	1820	0.46291004988628
5	5860786	1840	0.52704627669473
5	6011707	1860	0.51754916950677
5	6165139	1880	0.48304589153965
5	6321434	1900	0.57735026918963
5	6479890	1920	0.51492865054444
5	6640810	1940	0.42163702135578
5	6804176	1960	0.5
5	6970712	1980	0.52223296786709
5	7140119	2000	0.5
6	146109	240	0.33333333333333
6	172243	260	0.33333333333333
6	199257	280	0
6	226781	300	0.2
6	254242	320	0.33333333333333
6	281446	340	0.33333333333333
6	308766	360	0.33333333333333
6	336092	380	nan
6	363999	400	0
6	392643	420	0
6	421743	440	0.33333333333333
6	451129	460	0.33333333333333
6	481281	480	0.2
6	511991	500	0.25
6	543658	520	0.25
6	575852	540	0.33333333333333
6	608817	560	0
6	642498	580	0.3
6	677304	600	0.2
6	712678	620	0.16666666666667
6	749566	640	0
6	787942	660	0.26666666666667
6	826939	680	0.2
6	867125	700	0
6	908828	720	0.33333333333333
6	951419	740	0.19444444444444
6	995687	760	0.27777777777778
6	1040945	780	0
6	1087117	800	0.5
6	1134133	820	0.5
6	1182328	840	0
6	1232259	860	0.26666666666667
6	1283319	880	0
6	1334909	900	0.28571428571429
6	1388105	920	0.19444444444444
6	1442560	940	0.28571428571429
6	1498559	960	0.3
6	1555697	980	0.27777777777778
6	1614755	1000	0.25
6	1675018	1020	0.26666666666667
6	1736559	1040	0.5
6	1799626	1060	0.16666666666667
6	1864497	1080	0.25
6	1930694	1100	0.3
6	1998821	1120	0.26785714285714
6	2069219	1140	0.25454545454545
6	2141261	1160	0.33333333333333
6	2215142	1180	0.26785714285714
6	2291028	1200	0.28571428571429
6	2369125	1220	0.3
6	2448588	1240	0.27272727272727
6	2531259	1260	0.26785714285714
6	2615169	1280	0.26666666666667
6	2700950	1300	0.27777777777778
6	2789103	1320	0.14285714285714
6	2879342	1340	0.23809523809524
6	2971705	1360	0.26666666666667
6	3066098	1380	0.26515151515152
6	3162420	1400	0.27272727272727
6	3260591	1420	0.21978021978022
6	3361429	1440	0.3
6	3464566	1460	0.28571428571429
6	3569002	1480	0.27777777777778
6	3676720	1500	0.33333333333333
6	3786444	1520	0.26785714285714
6	3898658	1540	0.23809523809524
6	4012814	1560	0.24242424242424
6	4129597	1580	0.3
6	4248203	1600	0.3
6	4369634	1620	0.21818181818182
6	4493721	1640	0.25
6	4619876	1660	0.23076923076923
6	4747795	1680	0.25454545454545
6	4878413	1700	0.27777777777778
6	5011275	1720	0.26923076923077
6	5146971	1740	0.25454545454545
6	5284754	1760	0.26515151515152
6	5425150	1780	0.23333333333333
6	5567832	1800	0.28571428571429
6	5713098	1820	0.21428571428571
6	5860786	1840	0.27777777777778
6	6011707	1860	0.26785714285714
6	6165139	1880	0.23333333333333
6	6321434	1900	0.33333333333333
6	6479890	1920	0.26515151515152
6	6640810	1940	0.17777777777778
6	6804176	1960	0.25
6	6970712	1980	0.27272727272727
6	7140119	2000	0.25
7	146109	240	22.607594936709
7	172243	260	22.732558139535
7	199257	280	22.866666666667
7	226781	300	22.340425531915
7	254242	320	22.606382978723
7	281446	340	22.085106382979
7	308766	360	22.436170212766
7	336092	380	22.202127659574
7	363999	400	22.104166666667
7	392643	420	21.969072164948
7	421743	440	22.546391752577
7	451129	460	22.285714285714
7	481281	480	22.227722772277
7	511991	500	22.52
7	543658	520	22.538461538462
7	575852	540	22.980952380952
7	608817	560	22.943925233645
7	642498	580	23.435185185185
7	677304	600	23.678899082569
7	712678	620	24.321100917431
7	749566	640	24.783783783784
7	787942	660	25.486725663717
7	826939	680	25.614035087719
7	867125	700	26.149122807018
7	908828	720	26.791304347826
7	951419	740	27.284482758621
7	995687	760	28.008333333333
7	1040945	780	28.231404958678
7	1087117	800	28.841666666667
7	1134133	820	29.089430894309
7	1182328	840	29.188524590164
7	1232259	860	29.862903225806
7	1283319	880	30.198412698413
7	1334909	900	30.3671875
7	1388105	920	30.779527559055
7	1442560	940	31.007751937984
7	1498559	960	31.458015267176
7	1555697	980	31.909090909091
7	1614755	1000	32.155555555556
7	1675018	1020	33.126865671642
7	1736559	1040	32.948905109489
7	1799626	1060	33.769784172662
7	1864497	1080	34.601449275362
7	1930694	1100	34.878571428571
7	1998821	1120	35.54609929078
7	2069219	1140	36.464788732394
7	2141261	1160	36.767605633803
7	2215142	1180	37.841379310345
7	2291028	1200	38.285714285714
7	2369125	1220	39.047297297297
7	2448588	1240	39.804054054054
7	2531259	1260	40.456375838926
7	2615169	1280	41.293333333333
7	2700950	1300	41.657894736842
7	2789103	1320	42.809210526316
7	2879342	1340	43.401315789474
7	2971705	1360	43.864516129032
7	3066098	1380	44.611464968153
7	3162420	1400	45.138364779874
7	3260591	1420	45.968553459119
7	3361429	1440	46.018518518519
7	3464566	1460	47.240740740741
7	3569002	1480	47.907975460123
7	3676720	1500	48.938650306748
7	3786444	1520	49.343373493976
7	3898658	1540	49.577380952381
7	4012814	1560	50.375
7	4129597	1580	51.434523809524
7	4248203	1600	51.2
7	4369634	1620	51.854651162791
7	4493721	1640	52.471264367816
7	4619876	1660	52.645714285714
7	4747795	1680	53.1875
7	4878413	1700	53.570621468927
7	5011275	1720	54.282485875706
7	5146971	1740	54.817679558011
7	5284754	1760	55.049723756906
7	5425150	1780	55.715846994536
7	5567832	1800	56.20652173913
7	5713098	1820	56.962162162162
7	5860786	1840	57.572972972973
7	6011707	1860	58.292553191489
7	6165139	1880	58.767195767196
7	6321434	1900	59.877659574468
7	6479890	1920	59.696335078534
7	6640810	1940	60.874345549738
7	6804176	1960	60.880829015544
7	6970712	1980	61.229591836735
7	7140119	2000	62.203045685279
8	146109	240	4.3601273843982
8	172243	260	4.3909651052364
8	199257	280	4.125012768111
8	226781	300	4.3318107949462
8	254242	320	4.3950560814712
8	281446	340	5.2745270887603
8	308766	360	5.1838427865081
8	336092	380	4.0122923682159
8	363999	400	4.7671665791099
8	392643	420	4.7422164478741
8	421743	440	4.4159290702257
8	451129	460	3.9637532978461
8	481281	480	4.1638472309123
8	511991	500	3.8362439542823
8	543658	520	4.109952582636
8	575852	540	3.3049524387971
8	608817	560	3.9161778047135
8	642498	580	3.8482260706226
8	677304	600	3.4477065214777
8	712678	620	3.3606677410371
8	749566	640	3.6316923312953
8	787942	660	4.833135340409
8	826939	680	4.6629945407703
8	867125	700	5.1340136899755
8	908828	720	6.112247773541
8	951419	740	6.309145927844
8	995687	760	6.7891359499408
8	1040945	780	7.7510863008339
8	1087117	800	7.792471947182
8	1134133	820	7.9753802829126
8	1182328	840	8.1801331266957
8	1232259	860	8.7905480257026
8	1283319	880	9.3944833524956
8	1334909	900	9.5057969000355
8	1388105	920	9.2786778835722
8	1442560	940	10.136949834047
8	1498559	960	10.501472088738
8	1555697	980	11.320085874472
8	1614755	1000	11.383981064444
8	1675018	1020	12.0496601779
8	1736559	1040	12.487830056807
8	1799626	1060	12.954388516527
8	1864497	1080	13.245321363797
8	1930694	1100	13.854572451022
8	1998821	1120	14.378294741581
8	2069219	1140	14.738217783376
8	2141261	1160	15.516939036525
8	2215142	1180	15.916307091082
8	2291028	1200	16.860832459665
8	2369125	1220	17.406439679198
8	2448588	1240	17.472489078815
8	2531259	1260	18.225866390809
8	2615169	1280	18.905823351538
8	2700950	1300	19.40850679305
8	2789103	1320	19.620145597826
8	2879342	1340	20.511427881889
8	2971705	1360	21.091660634083
8	3066098	1380	21.718079931638
8	3162420	1400	21.847421997619
8	3260591	1420	22.46922547539
8	3361429	1440	23.216633633985
8	3464566	1460	23.402979466194
8	3569002	1480	24.14150920849
8	3676720	1500	24.625765201255
8	3786444	1520	25.039051646148
8	3898658	1540	25.604195255005
8	4012814	1560	26.049857195007
8	4129597	1580	26.611113765113
8	4248203	1600	26.112773178598
8	4369634	1620	26.599846796273
8	4493721	1640	27.085537416128
8	4619876	1660	27.187729048919
8	4747795	1680	27.569425352838
8	4878413	1700	27.636784532045
8	5011275	1720	27.576739591775
8	5146971	1740	27.984021574365
8	5284754	1760	28.550788322079
8	5425150	1780	28.807167152656
8	5567832	1800	28.932383219579
8	5713098	1820	29.293189512605
8	5860786	1840	29.316976909892
8	6011707	1860	29.523208451939
8	6165139	1880	29.804304684605
8	6321434	1900	30.358656992465
8	6479890	1920	30.847194484269
8	6640810	1940	30.872486839391
8	6804176	1960	31.049209855365
8	6970712	1980	31.541154911732
8	7140119	2000	31.68739836538
9	146109	240	19.010710808179
9	172243	260	19.280574555404
9	199257	280	17.015730337079
9	226781	300	18.764584763212
9	254242	320	19.316517959277
9	281446	340	27.820636010066
9	308766	360	26.872226035232
9	336092	380	16.098490048044
9	363999	400	22.725877192982
9	392643	420	22.488616838488
9	421743	440	19.500429553265
9	451129	460	15.711340206186
9	481281	480	17.337623762376
9	511991	500	14.716767676768
9	543658	520	16.891710231516
9	575852	540	10.922710622711
9	608817	560	15.336448598131
9	642498	580	14.80884389062
9	677304	600	11.88668025824
9	712678	620	11.294087665647
9	749566	640	13.189189189189
9	787942	660	23.35919721871
9	826939	680	21.743518087254
9	867125	700	26.358096568856
9	908828	720	37.359572845156
9	951419	740	39.805322338831
9	995687	760	46.092366946779
9	1040945	780	60.079338842975
9	1087117	800	60.722619047619
9	1134133	820	63.606690657071
9	1182328	840	66.914577970465
9	1232259	860	77.273734592185
9	1283319	880	88.256317460317
9	1334909	900	90.360174704724
9	1388105	920	86.093863267092
9	1442560	940	102.75775193798
9	1498559	960	110.28091603053
9	1555697	980	128.14434420541
9	1614755	1000	129.59502487562
9	1675018	1020	145.19431040287
9	1736559	1040	155.94589952769
9	1799626	1060	167.81618183714
9	1864497	1080	175.43853803025
9	1930694	1100	191.94917780062
9	1998821	1120	206.73535967579
9	2069219	1140	217.21506343023
9	2141261	1160	240.77539706323
9	2215142	1180	253.32883141762
9	2291028	1200	284.28767123288
9	2369125	1220	302.98414230557
9	2448588	1240	305.2878746093
9	2531259	1260	332.18220569563
9	2615169	1280	357.43015659955
9	2700950	1300	376.69013593587
9	2789103	1320	384.95011327989
9	2879342	1340	420.71867375392
9	2971705	1360	444.85814830331
9	3066098	1380	471.67499591703
9	3162420	1400	477.30984794204
9	3260591	1420	504.8660934639
9	3361429	1440	539.01207729469
9	3464566	1460	547.6994478951
9	3569002	1480	582.81246686359
9	3676720	1500	606.42831174733
9	3786444	1520	626.95410733844
9	3898658	1540	655.5748146564
9	4012814	1560	678.59505988024
9	4129597	1580	708.15137581979
9	4248203	1600	681.87692307692
9	4369634	1620	707.5518495852
9	4493721	1640	733.62633712046
9	4619876	1660	739.17261083744
9	4747795	1680	760.07321428571
9	4878413	1700	763.79185927067
9	5011275	1720	760.47656651258
9	5146971	1740	783.10546347452
9	5284754	1760	815.14751381215
9	5425150	1780	829.85287936108
9	5567832	1800	837.08279876455
9	5713098	1820	858.09095182139
9	5860786	1840	859.48513513514
9	6011707	1860	871.61983729662
9	6165139	1880	888.29657773275
9	6321434	1900	921.64805438616
9	6479890	1920	951.54940755029
9	6640810	1940	953.11044364839
9	6804176	1960	964.05343264249
9	6970712	1980	994.84445316588
9	7140119	2000	1004.0912151663
10	146109	240	143.22230185841
10	172243	260	198.86568976403
10	199257	280	187.76937851969
10	226781	300	232.74413400751
10	254242	320	146.53836512188
10	281446	340	144.64884109306
10	308766	360	188.11724309273
10	336092	380	49.409117757925
10	363999	400	147.46986059143
10	392643	420	435.63788716745
10	421743	440	142.60891777149
10	451129	460	143.27738058296
10	481281	480	239.6233504988
10	511991	500	198.48483405069
10	543658	520	188.08656991108
10	575852	540	193.27864488148
10	608817	560	93.360356490602
10	642498	580	244.06275242482
10	677304	600	243.69823859799
10	712678	620	304.92648750362
10	749566	640	191.50019959605
10	787942	660	290.41769631621
10	826939	680	249.87538693758
10	867125	700	100.17565176873
10	908828	720	162.86909758416
10	951419	740	442.96350805069
10	995687	760	452.40562959494
10	1040945	780	101.08552891692
10	1087117	800	486.12157957669
10	1134133	820	93.093330685761
10	1182328	840	294.54870754207
10	1232259	860	314.28274882305
10	1283319	880	296.71443211556
10	1334909	900	338.78865765429
10	1388105	920	448.31510132443
10	1442560	940	351.46590145635
10	1498559	960	256.69237119389
10	1555697	980	447.76144291769
10	1614755	1000	449.1639516551
10	1675018	1020	307.25807398852
10	1736559	1040	102.55733759644
10	1799626	1060	293.49453202301
10	1864497	1080	193.52474845505
10	1930694	1100	245.30934995466
10	1998821	1120	420.70274096394
10	2069219	1140	551.55157154703
10	2141261	1160	149.4705881657
10	2215142	1180	399.97311877248
10	2291028	1200	404.66669690323
10	2369125	1220	247.61729835742
10	2448588	1240	607.72509828014
10	2531259	1260	407.85131677009
10	2615169	1280	499.10831244471
10	2700950	1300	451.48348387328
10	2789103	1320	348.44996804863
10	2879342	1340	343.30770723485
10	2971705	1360	307.88206546003
10	3066098	1380	594.14262764886
10	3162420	1400	552.51288076055
10	3260591	1420	696.60288646736
10	3361429	1440	308.65878761909
10	3464566	1460	349.76936998347
10	3569002	1480	507.14614500788
10	3676720	1500	195.88592255798
10	3786444	1520	399.45736677923
10	3898658	1540	362.63640883606
10	4012814	1560	583.994711862
10	4129597	1580	241.10408826006
10	4248203	1600	310.40182236801
10	4369634	1620	546.93440297271
10	4493721	1640	447.37009637107
10	4619876	1660	656.49137531774
10	4747795	1680	547.65587783543
10	4878413	1700	496.88513275576
10	5011275	1720	654.97160400051
10	5146971	1740	549.84166634537
10	5284754	1760	617.63501123989
10	5425150	1780	506.56995695981
10	5567832	1800	355.04760111191
10	5713098	1820	399.17255199454
10	5860786	1840	444.26522183133
10	6011707	1860	398.17720103616
10	6165139	1880	500.00084323943
10	6321434	1900	146.81365243288
10	6479890	1920	615.42213057942
10	6640810	1940	492.88236930316
10	6804176	1960	440.8744039133
10	6970712	1980	603.63854434119
10	7140119	2000	453.65863567092
11	146109	240	47.740767286138
11	172243	260	49.716422441007
11	199257	280	46.942344629922
11	226781	300	46.548826801502
11	254242	320	48.846121707292
11	281446	340	48.216280364355
11	308766	360	47.029310773182
11	336092	380	49.409117757925
11	363999	400	49.156620197144
11	392643	420	48.404209685273
11	421743	440	47.536305923831
11	451129	460	47.759126860986
11	481281	480	47.92467009976
11	511991	500	49.621208512672
11	543658	520	47.021642477771
11	575852	540	48.319661220371
11	608817	560	46.680178245301
11	642498	580	48.812550484964
11	677304	600	48.739647719598
11	712678	620	50.821081250604
11	749566	640	47.875049899012
11	787942	660	48.402949386035
11	826939	680	49.975077387516
11	867125	700	50.087825884363
11	908828	720	54.28969919472
11	951419	740	49.218167561188
11	995687	760	50.267292177216
11	1040945	780	50.542764458461
11	1087117	800	48.612157957669
11	1134133	820	46.546665342881
11	1182328	840	49.091451257012
11	1232259	860	52.380458137176
11	1283319	880	49.452405352593
11	1334909	900	48.398379664899
11	1388105	920	49.812789036047
11	1442560	940	50.209414493764
11	1498559	960	51.338474238777
11	1555697	980	49.751271435299
11	1614755	1000	49.907105739455
11	1675018	1020	51.209678998087
11	1736559	1040	51.278668798218
11	1799626	1060	48.915755337169
11	1864497	1080	48.381187113763
11	1930694	1100	49.061869990933
11	1998821	1120	52.587842620493
11	2069219	1140	50.141051958821
11	2141261	1160	49.823529388567
11	2215142	1180	49.99663984656
11	2291028	1200	50.583337112904
11	2369125	1220	49.523459671483
11	2448588	1240	50.643758190012
11	2531259	1260	50.981414596261
11	2615169	1280	49.910831244471
11	2700950	1300	50.164831541475
11	2789103	1320	49.77856686409
11	2879342	1340	49.043958176408
11	2971705	1360	51.313677576671
11	3066098	1380	49.511885637405
11	3162420	1400	50.228443705505
11	3260591	1420	49.757349033383
11	3361429	1440	51.443131269848
11	3464566	1460	49.967052854782
11	3569002	1480	50.714614500788
11	3676720	1500	48.971480639494
11	3786444	1520	49.932170847403
11	3898658	1540	51.805201262295
11	4012814	1560	48.6662259885
11	4129597	1580	48.220817652013
11	4248203	1600	51.733637061334
11	4369634	1620	49.721309361156
11	4493721	1640	49.707788485675
11	4619876	1660	50.499336562903
11	4747795	1680	49.786897985039
11	4878413	1700	49.688513275576
11	5011275	1720	50.382431076962
11	5146971	1740	49.985606031397
11	5284754	1760	51.469584269991
11	5425150	1780	50.656995695981
11	5567832	1800	50.721085873129
11	5713098	1820	49.896568999317
11	5860786	1840	49.362802425704
11	6011707	1860	49.77215012952
11	6165139	1880	50.000084323943
11	6321434	1900	48.937884144293
11	6479890	1920	51.285177548285
11	6640810	1940	49.288236930316
11	6804176	1960	48.986044879255
11	6970712	1980	50.303212028432
11	7140119	2000	50.406515074547
12	146109	240	0.54158284868689
12	172243	260	3.2100285660801
12	199257	280	1.074019079966
12	226781	300	0.62525188450551
12	254242	320	0.76135835043442
12	281446	340	1.1077790900217
12	308766	360	0.96499143155107
12	336092	380	nan
12	363999	400	1.1204155825164
12	392643	420	3.1631894096265
12	421743	440	2.0677157306611
12	451129	460	1.169025008665
12	481281	480	1.4454329110184
12	511991	500	2.5887051751001
12	543658	520	1.5915715765562
12	575852	540	1.1339541903251
12	608817	560	1.0950533948698
12	642498	580	1.5755741877571
12	677304	600	4.5845671563301
12	712678	620	2.4831219827882
12	749566	640	1.8030310614752
12	787942	660	1.4588391496674
12	826939	680	3.3540459130584
12	867125	700	4.335330719657
12	908828	720	7.4065737475633
12	951419	740	2.6324406619051
12	995687	760	4.2106698375396
12	1040945	780	1.8136261505622
12	1087117	800	1.5656267009172
12	1134133	820	0.043896594956512
12	1182328	840	1.9774913959073
12	1232259	860	1.3201547278166
12	1283319	880	3.0340514427188
12	1334909	900	1.6905091988206