version 2
run statisticRVV-31-20150327-01:50:25-12928
attr c 9
attr configname statisticRVV
attr datetime 20150327-01:50:25
attr experiment statisticRVV
attr inifile omnetpp.ini
attr iterationvars "$sc=\"erlangen-low.launchd.xml\", $p=1/10, $c=9"
attr iterationvars2 "$sc=\"erlangen-low.launchd.xml\", $p=1/10, $c=9, $repetition=1"
attr measurement "$sc=\"erlangen-low.launchd.xml\", $p=1/10, $c=9"
attr network RSUExampleScenario
attr p 1/10
attr processid 12928
attr repetition 1
attr replication #1
attr resultdir results
attr runnumber 31
attr sc "\"erlangen-low.launchd.xml\""
attr seedset 31

vector 0  RSUExampleScenario.rsu[0].appl  Number_CH  ETV
vector 1  RSUExampleScenario.rsu[0].appl  Number_ON  ETV
vector 2  RSUExampleScenario.rsu[0].appl  Number_FN  ETV
vector 3  RSUExampleScenario.rsu[0].appl  Number_CH_Losts  ETV
vector 4  RSUExampleScenario.rsu[0].appl  Number_CH_Losts  ETV
vector 5  RSUExampleScenario.rsu[0].appl  Mean_Cluster_Size  ETV
vector 6  RSUExampleScenario.rsu[0].appl  StdDev_Cluster_Size  ETV
vector 7  RSUExampleScenario.rsu[0].appl  Variance_Cluster_Size  ETV
vector 8  RSUExampleScenario.rsu[0].appl  Mean_Neighbors  ETV
vector 9  RSUExampleScenario.rsu[0].appl  StdDev_Neighbors  ETV
vector 10  RSUExampleScenario.rsu[0].appl  Variance_Neighbors  ETV
vector 11  RSUExampleScenario.rsu[0].appl  Total_CH_Utility  ETV
vector 12  RSUExampleScenario.rsu[0].appl  Mean_CH_Utility  ETV
vector 13  RSUExampleScenario.rsu[0].appl  StdDev_CH_Utility  ETV
vector 14  RSUExampleScenario.rsu[0].appl  Variance_CH_Utility  ETV
vector 15  RSUExampleScenario.rsu[0].appl  Total_exp_CH_Utility  ETV
vector 16  RSUExampleScenario.rsu[0].appl  Mean_exp_CH_Utility  ETV
vector 17  RSUExampleScenario.rsu[0].appl  StdDev_exp_CH_Utility  ETV
vector 18  RSUExampleScenario.rsu[0].appl  Variance_exp_CH_Utility  ETV
vector 19  RSUExampleScenario.rsu[0].appl  Total_ON_Utility  ETV
vector 20  RSUExampleScenario.rsu[0].appl  Mean_ON_Utility  ETV
vector 21  RSUExampleScenario.rsu[0].appl  StdDev_ON_Utility  ETV
vector 22  RSUExampleScenario.rsu[0].appl  Variance_ON_Utility  ETV
vector 23  RSUExampleScenario.rsu[0].appl  Total_exp_ON_Utility  ETV
vector 24  RSUExampleScenario.rsu[0].appl  Mean_exp_ON_Utility  ETV
vector 25  RSUExampleScenario.rsu[0].appl  StdDev_exp_ON_Utility  ETV
vector 26  RSUExampleScenario.rsu[0].appl  Variance_exp_ON_Utility  ETV
0	34481	240	3
0	39784	260	5
0	45164	280	2
0	50472	300	2
0	55758	320	2
0	60968	340	3
0	66230	360	4
0	71628	380	2
0	76963	400	4
0	82308	420	3
0	87628	440	7
0	93007	460	1
0	98364	480	1
0	103711	500	5
0	109052	520	3
0	114513	540	4
0	119834	560	2
0	125090	580	1
0	130453	600	4
0	135776	620	5
0	141108	640	5
0	146390	660	2
0	151848	680	3
0	157180	700	2
0	162525	720	2
0	167933	740	4
0	173174	760	6
0	178446	780	4
0	183816	800	3
0	189133	820	3
0	194389	840	4
0	199680	860	2
0	204913	880	4
0	210219	900	6
0	215481	920	2
0	220820	940	1
0	226124	960	3
0	231461	980	5
0	236662	1000	1
0	241983	1020	5
0	247278	1040	2
0	252612	1060	5
0	257845	1080	1
0	263121	1100	3
0	268399	1120	2
0	273679	1140	4
0	278949	1160	0
0	284338	1180	4
0	289748	1200	4
0	295062	1220	1
0	300310	1240	2
0	305680	1260	1
0	310955	1280	5
0	316319	1300	0
0	321616	1320	2
0	327107	1340	5
0	332443	1360	1
0	337786	1380	6
0	343174	1400	4
0	348450	1420	6
0	353737	1440	4
0	359142	1460	2
0	364621	1480	4
0	369994	1500	5
0	375337	1520	4
0	380626	1540	1
0	385941	1560	7
0	391205	1580	3
0	396483	1600	5
0	401812	1620	6
0	407252	1640	5
0	412508	1660	5
0	417780	1680	6
0	423103	1700	4
0	428431	1720	2
0	433758	1740	5
0	439064	1760	3
0	444495	1780	3
0	449832	1800	4
0	454628	1820	1
0	458934	1840	3
0	462716	1860	4
0	466077	1880	1
0	468944	1900	1
0	471411	1920	2
0	473409	1940	2
0	474928	1960	1
0	475979	1980	1
0	476565	2000	1
1	34481	240	12
1	39784	260	12
1	45164	280	7
1	50472	300	7
1	55758	320	6
1	60968	340	10
1	66230	360	14
1	71628	380	11
1	76963	400	13
1	82308	420	15
1	87628	440	13
1	93007	460	4
1	98364	480	2
1	103711	500	12
1	109052	520	11
1	114513	540	6
1	119834	560	8
1	125090	580	2
1	130453	600	7
1	135776	620	17
1	141108	640	13
1	146390	660	5
1	151848	680	9
1	157180	700	5
1	162525	720	4
1	167933	740	13
1	173174	760	16
1	178446	780	16
1	183816	800	8
1	189133	820	11
1	194389	840	14
1	199680	860	10
1	204913	880	14
1	210219	900	11
1	215481	920	2
1	220820	940	7
1	226124	960	6
1	231461	980	13
1	236662	1000	1
1	241983	1020	13
1	247278	1040	7
1	252612	1060	11
1	257845	1080	5
1	263121	1100	10
1	268399	1120	7
1	273679	1140	8
1	278949	1160	0
1	284338	1180	13
1	289748	1200	14
1	295062	1220	9
1	300310	1240	8
1	305680	1260	4
1	310955	1280	22
1	316319	1300	0
1	321616	1320	7
1	327107	1340	22
1	332443	1360	2
1	337786	1380	18
1	343174	1400	12
1	348450	1420	16
1	353737	1440	10
1	359142	1460	10
1	364621	1480	7
1	369994	1500	7
1	375337	1520	11
1	380626	1540	9
1	385941	1560	10
1	391205	1580	4
1	396483	1600	18
1	401812	1620	18
1	407252	1640	14
1	412508	1660	11
1	417780	1680	12
1	423103	1700	10
1	428431	1720	7
1	433758	1740	11
1	439064	1760	11
1	444495	1780	9
1	449832	1800	13
1	454628	1820	1
1	458934	1840	9
1	462716	1860	6
1	466077	1880	2
1	468944	1900	3
1	471411	1920	3
1	473409	1940	3
1	474928	1960	2
1	475979	1980	2
1	476565	2000	2
2	34481	240	25
2	39784	260	23
2	45164	280	32
2	50472	300	30
2	55758	320	32
2	60968	340	27
2	66230	360	22
2	71628	380	27
2	76963	400	24
2	82308	420	21
2	87628	440	20
2	93007	460	37
2	98364	480	38
2	103711	500	24
2	109052	520	26
2	114513	540	31
2	119834	560	30
2	125090	580	38
2	130453	600	30
2	135776	620	18
2	141108	640	22
2	146390	660	32
2	151848	680	29
2	157180	700	33
2	162525	720	35
2	167933	740	23
2	173174	760	19
2	178446	780	21
2	183816	800	29
2	189133	820	27
2	194389	840	22
2	199680	860	27
2	204913	880	21
2	210219	900	23
2	215481	920	37
2	220820	940	33
2	226124	960	31
2	231461	980	23
2	236662	1000	37
2	241983	1020	23
2	247278	1040	31
2	252612	1060	25
2	257845	1080	33
2	263121	1100	27
2	268399	1120	31
2	273679	1140	28
2	278949	1160	41
2	284338	1180	24
2	289748	1200	23
2	295062	1220	31
2	300310	1240	29
2	305680	1260	35
2	310955	1280	14
2	316319	1300	40
2	321616	1320	30
2	327107	1340	15
2	332443	1360	36
2	337786	1380	16
2	343174	1400	24
2	348450	1420	18
2	353737	1440	27
2	359142	1460	28
2	364621	1480	30
2	369994	1500	28
2	375337	1520	25
2	380626	1540	29
2	385941	1560	23
2	391205	1580	33
2	396483	1600	18
2	401812	1620	17
2	407252	1640	22
2	412508	1660	23
2	417780	1680	22
2	423103	1700	26
2	428431	1720	33
2	433758	1740	25
2	439064	1760	25
2	444495	1780	29
2	449832	1800	23
2	454628	1820	35
2	458934	1840	23
2	462716	1860	21
2	466077	1880	24
2	468944	1900	19
2	471411	1920	15
2	473409	1940	13
2	474928	1960	11
2	475979	1980	8
2	476565	2000	4
3	34481	240	0
3	39784	260	0
3	45164	280	1
3	50472	300	0
3	55758	320	0
3	60968	340	1
3	66230	360	0
3	71628	380	0
3	76963	400	0
3	82308	420	0
3	87628	440	0
3	93007	460	0
3	98364	480	0
3	103711	500	0
3	109052	520	1
3	114513	540	0
3	119834	560	0
3	125090	580	0
3	130453	600	0
3	135776	620	1
3	141108	640	0
3	146390	660	0
3	151848	680	0
3	157180	700	0
3	162525	720	0
3	167933	740	0
3	173174	760	0
3	178446	780	0
3	183816	800	0
3	189133	820	0
3	194389	840	1
3	199680	860	0
3	204913	880	0
3	210219	900	0
3	215481	920	0
3	220820	940	0
3	226124	960	1
3	231461	980	0
3	236662	1000	0
3	241983	1020	0
3	247278	1040	1
3	252612	1060	1
3	257845	1080	0
3	263121	1100	0
3	268399	1120	0
3	273679	1140	0
3	278949	1160	0
3	284338	1180	0
3	289748	1200	1
3	295062	1220	0
3	300310	1240	0
3	305680	1260	1
3	310955	1280	0
3	316319	1300	0
3	321616	1320	0
3	327107	1340	0
3	332443	1360	0
3	337786	1380	1
3	343174	1400	0
3	348450	1420	0
3	353737	1440	1
3	359142	1460	0
3	364621	1480	0
3	369994	1500	0
3	375337	1520	0
3	380626	1540	0
3	385941	1560	0
3	391205	1580	0
3	396483	1600	0
3	401812	1620	0
3	407252	1640	0
3	412508	1660	0
3	417780	1680	1
3	423103	1700	1
3	428431	1720	0
3	433758	1740	0
3	439064	1760	0
3	444495	1780	1
3	449832	1800	1
3	454628	1820	0
3	458934	1840	1
3	462716	1860	2
3	466077	1880	0
3	468944	1900	0
3	471411	1920	0
3	473409	1940	0
3	474928	1960	1
3	475979	1980	0
3	476565	2000	0
4	34481	240	25
4	39784	260	23
4	45164	280	31
4	50472	300	30
4	55758	320	32
4	60968	340	26
4	66230	360	21
4	71628	380	26
4	76963	400	24
4	82308	420	21
4	87628	440	20
4	93007	460	36
4	98364	480	38
4	103711	500	23
4	109052	520	25
4	114513	540	31
4	119834	560	30
4	125090	580	37
4	130453	600	30
4	135776	620	17
4	141108	640	21
4	146390	660	32
4	151848	680	28
4	157180	700	33
4	162525	720	35
4	167933	740	23
4	173174	760	19
4	178446	780	21
4	183816	800	29
4	189133	820	27
4	194389	840	21
4	199680	860	27
4	204913	880	21
4	210219	900	23
4	215481	920	37
4	220820	940	33
4	226124	960	30
4	231461	980	23
4	236662	1000	37
4	241983	1020	23
4	247278	1040	30
4	252612	1060	24
4	257845	1080	33
4	263121	1100	27
4	268399	1120	31
4	273679	1140	28
4	278949	1160	41
4	284338	1180	23
4	289748	1200	22
4	295062	1220	31
4	300310	1240	29
4	305680	1260	33
4	310955	1280	14
4	316319	1300	40
4	321616	1320	30
4	327107	1340	15
4	332443	1360	36
4	337786	1380	15
4	343174	1400	24
4	348450	1420	18
4	353737	1440	26
4	359142	1460	28
4	364621	1480	30
4	369994	1500	28
4	375337	1520	24
4	380626	1540	29
4	385941	1560	23
4	391205	1580	33
4	396483	1600	18
4	401812	1620	17
4	407252	1640	22
4	412508	1660	23
4	417780	1680	21
4	423103	1700	25
4	428431	1720	33
4	433758	1740	25
4	439064	1760	25
4	444495	1780	28
4	449832	1800	22
4	454628	1820	35
4	458934	1840	22
4	462716	1860	19
4	466077	1880	24
4	468944	1900	19
4	471411	1920	15
4	473409	1940	13
4	474928	1960	10
4	475979	1980	8
4	476565	2000	4
5	34481	240	4
5	39784	260	2.4
5	45164	280	3.5
5	50472	300	3.5
5	55758	320	3
5	60968	340	3.3333333333333
5	66230	360	3.5
5	71628	380	5.5
5	76963	400	3.25
5	82308	420	5
5	87628	440	1.8571428571429
5	93007	460	4
5	98364	480	2
5	103711	500	2.4
5	109052	520	3.6666666666667
5	114513	540	1.5
5	119834	560	4
5	125090	580	2
5	130453	600	1.75
5	135776	620	3.4
5	141108	640	2.6
5	146390	660	2.5
5	151848	680	3
5	157180	700	2.5
5	162525	720	2
5	167933	740	3.25
5	173174	760	2.6666666666667
5	178446	780	4
5	183816	800	2.6666666666667
5	189133	820	3.6666666666667
5	194389	840	3.5
5	199680	860	5
5	204913	880	3.5
5	210219	900	1.8333333333333
5	215481	920	1
5	220820	940	7
5	226124	960	2
5	231461	980	2.6
5	236662	1000	1
5	241983	1020	2.6
5	247278	1040	3.5
5	252612	1060	2.2
5	257845	1080	5
5	263121	1100	3.3333333333333
5	268399	1120	3.5
5	273679	1140	2
5	278949	1160	nan
5	284338	1180	3.25
5	289748	1200	3.5
5	295062	1220	9
5	300310	1240	4
5	305680	1260	4
5	310955	1280	4.4
5	316319	1300	nan
5	321616	1320	3.5
5	327107	1340	4.4
5	332443	1360	2
5	337786	1380	3
5	343174	1400	3
5	348450	1420	2.6666666666667
5	353737	1440	2.5
5	359142	1460	5
5	364621	1480	1.75
5	369994	1500	1.4
5	375337	1520	2.75
5	380626	1540	9
5	385941	1560	1.4285714285714
5	391205	1580	1.3333333333333
5	396483	1600	3.6
5	401812	1620	3
5	407252	1640	2.8
5	412508	1660	2.2
5	417780	1680	2
5	423103	1700	2.5
5	428431	1720	3.5
5	433758	1740	2.2
5	439064	1760	3.6666666666667
5	444495	1780	3
5	449832	1800	3.25
5	454628	1820	1
5	458934	1840	3
5	462716	1860	1.5
5	466077	1880	2
5	468944	1900	3
5	471411	1920	1.5
5	473409	1940	1.5
5	474928	1960	2
5	475979	1980	2
5	476565	2000	2
6	34481	240	1.7320508075689
6	39784	260	1.9493588689618
6	45164	280	2.1213203435596
6	50472	300	2.1213203435596
6	55758	320	1.4142135623731
6	60968	340	3.2145502536643
6	66230	360	1.9148542155127
6	71628	380	2.1213203435596
6	76963	400	2.0615528128088
6	82308	420	1
6	87628	440	1.0690449676497
6	93007	460	nan
6	98364	480	nan
6	103711	500	0.54772255750517
6	109052	520	3.0550504633039
6	114513	540	0.57735026918963
6	119834	560	2.8284271247462
6	125090	580	nan
6	130453	600	0.5
6	135776	620	1.1401754250991
6	141108	640	1.1401754250991
6	146390	660	0.70710678118655
6	151848	680	1.7320508075689
6	157180	700	0.70710678118655
6	162525	720	1.4142135623731
6	167933	740	3.2015621187164
6	173174	760	1.5055453054182
6	178446	780	3.5590260840104
6	183816	800	1.5275252316519
6	189133	820	3.0550504633039
6	194389	840	2.6457513110646
6	199680	860	1.4142135623731
6	204913	880	1.7320508075689
6	210219	900	0.75277265270908
6	215481	920	0
6	220820	940	nan
6	226124	960	0
6	231461	980	0.89442719099992
6	236662	1000	nan
6	241983	1020	1.1401754250991
6	247278	1040	3.5355339059327
6	252612	1060	1.6431676725155
6	257845	1080	nan
6	263121	1100	0.57735026918963
6	268399	1120	2.1213203435596
6	273679	1140	1.1547005383793
6	278949	1160	nan
6	284338	1180	3.8622100754188
6	289748	1200	2.5166114784236
6	295062	1220	nan
6	300310	1240	2.8284271247462
6	305680	1260	nan
6	310955	1280	1.1401754250991
6	316319	1300	nan
6	321616	1320	0.70710678118655
6	327107	1340	2.7018512172213
6	332443	1360	nan
6	337786	1380	2.0976176963403
6	343174	1400	1.4142135623731
6	348450	1420	1.6329931618555
6	353737	1440	1.2909944487358
6	359142	1460	4.2426406871193
6	364621	1480	0.95742710775634
6	369994	1500	0.54772255750517
6	375337	1520	1.5
6	380626	1540	nan
6	385941	1560	0.53452248382485
6	391205	1580	0.57735026918963
6	396483	1600	2.4083189157585
6	401812	1620	1.549193338483
6	407252	1640	0.83666002653408
6	412508	1660	1.3038404810405
6	417780	1680	1.2649110640674
6	423103	1700	1
6	428431	1720	0.70710678118655
6	433758	1740	0.83666002653408
6	439064	1760	2.0816659994661
6	444495	1780	2
6	449832	1800	1.5
6	454628	1820	nan
6	458934	1840	1
6	462716	1860	0.57735026918963
6	466077	1880	nan
6	468944	1900	nan
6	471411	1920	0.70710678118655
6	473409	1940	0.70710678118655
6	474928	1960	nan
6	475979	1980	nan
6	476565	2000	nan
7	34481	240	3
7	39784	260	3.8
7	45164	280	4.5
7	50472	300	4.5
7	55758	320	2
7	60968	340	10.333333333333
7	66230	360	3.6666666666667
7	71628	380	4.5
7	76963	400	4.25
7	82308	420	1
7	87628	440	1.1428571428571
7	93007	460	nan
7	98364	480	nan
7	103711	500	0.3
7	109052	520	9.3333333333333
7	114513	540	0.33333333333333
7	119834	560	8
7	125090	580	nan
7	130453	600	0.25
7	135776	620	1.3
7	141108	640	1.3
7	146390	660	0.5
7	151848	680	3
7	157180	700	0.5
7	162525	720	2
7	167933	740	10.25
7	173174	760	2.2666666666667
7	178446	780	12.666666666667
7	183816	800	2.3333333333333
7	189133	820	9.3333333333333
7	194389	840	7
7	199680	860	2
7	204913	880	3
7	210219	900	0.56666666666667
7	215481	920	0
7	220820	940	nan
7	226124	960	0
7	231461	980	0.8
7	236662	1000	nan
7	241983	1020	1.3
7	247278	1040	12.5
7	252612	1060	2.7
7	257845	1080	nan
7	263121	1100	0.33333333333333
7	268399	1120	4.5
7	273679	1140	1.3333333333333
7	278949	1160	nan
7	284338	1180	14.916666666667
7	289748	1200	6.3333333333333
7	295062	1220	nan
7	300310	1240	8
7	305680	1260	nan
7	310955	1280	1.3
7	316319	1300	nan
7	321616	1320	0.5
7	327107	1340	7.3
7	332443	1360	nan
7	337786	1380	4.4
7	343174	1400	2
7	348450	1420	2.6666666666667
7	353737	1440	1.6666666666667
7	359142	1460	18
7	364621	1480	0.91666666666667
7	369994	1500	0.3
7	375337	1520	2.25
7	380626	1540	nan
7	385941	1560	0.28571428571429
7	391205	1580	0.33333333333333
7	396483	1600	5.8
7	401812	1620	2.4
7	407252	1640	0.7
7	412508	1660	1.7
7	417780	1680	1.6
7	423103	1700	1
7	428431	1720	0.5
7	433758	1740	0.7
7	439064	1760	4.3333333333333
7	444495	1780	4
7	449832	1800	2.25
7	454628	1820	nan
7	458934	1840	1
7	462716	1860	0.33333333333333
7	466077	1880	nan
7	468944	1900	nan
7	471411	1920	0.5
7	473409	1940	0.5
7	474928	1960	nan
7	475979	1980	nan
7	476565	2000	nan
8	34481	240	8.725
8	39784	260	9.05
8	45164	280	9.075
8	50472	300	9.2051282051282
8	55758	320	9.1
8	60968	340	8.875
8	66230	360	9.025641025641
8	71628	380	9.2307692307692
8	76963	400	8.7073170731707
8	82308	420	9.1282051282051
8	87628	440	8.75
8	93007	460	8.8780487804878
8	98364	480	9.0487804878049
8	103711	500	9.175
8	109052	520	8.825
8	114513	540	8.9512195121951
8	119834	560	8.8
8	125090	580	8.925
8	130453	600	8.9756097560976
8	135776	620	8.975
8	141108	640	9.2820512820513
8	146390	660	9.1282051282051
8	151848	680	9.025
8	157180	700	9.075
8	162525	720	8.9756097560976
8	167933	740	8.9
8	173174	760	8.9268292682927
8	178446	780	8.8780487804878
8	183816	800	8.925
8	189133	820	8.9756097560976
8	194389	840	9.075
8	199680	860	9.0769230769231
8	204913	880	8.8717948717949
8	210219	900	8.725
8	215481	920	8.9512195121951
8	220820	940	9.0487804878049
8	226124	960	9.05
8	231461	980	9.0975609756098
8	236662	1000	8.8461538461538
8	241983	1020	9.0731707317073
8	247278	1040	9
8	252612	1060	9.0487804878049
8	257845	1080	8.974358974359
8	263121	1100	8.75
8	268399	1120	9.1
8	273679	1140	8.825
8	278949	1160	8.6585365853659
8	284338	1180	8.975
8	289748	1200	9.1219512195122
8	295062	1220	8.7560975609756
8	300310	1240	9.2564102564103
8	305680	1260	9.1538461538462
8	310955	1280	9.0487804878049
8	316319	1300	9.225
8	321616	1320	9
8	327107	1340	8.9285714285714
8	332443	1360	9.2051282051282
8	337786	1380	9.175
8	343174	1400	8.875
8	348450	1420	8.95
8	353737	1440	8.9512195121951
8	359142	1460	9.2
8	364621	1480	9.1219512195122
8	369994	1500	9.125
8	375337	1520	9.3076923076923
8	380626	1540	9.0512820512821
8	385941	1560	8.9
8	391205	1580	9.05
8	396483	1600	8.7317073170732
8	401812	1620	8.780487804878
8	407252	1640	9.1707317073171
8	412508	1660	8.8974358974359
8	417780	1680	9.075
8	423103	1700	9.075
8	428431	1720	8.6904761904762
8	433758	1740	8.9756097560976
8	439064	1760	9.1025641025641
8	444495	1780	8.780487804878
8	449832	1800	8.95
8	454628	1820	8.5405405405405
8	458934	1840	8.2
8	462716	1860	8.4838709677419
8	466077	1880	8.0740740740741
8	468944	1900	8.0869565217391
8	471411	1920	7.95
8	473409	1940	7.6111111111111
8	474928	1960	7
8	475979	1980	6.9090909090909
8	476565	2000	5.1428571428571
9	34481	240	1.9869768300302
9	39784	260	1.852925614625
9	45164	280	1.5423508530312
9	50472	300	1.2392588442819
9	55758	320	1.6763819404469
9	60968	340	1.4708710135364
9	66230	360	1.4232501627054
9	71628	380	1.6296841550878
9	76963	400	1.9524843461475
9	82308	420	1.5248725085532
9	87628	440	1.9967922994592
9	93007	460	1.9773103189841
9	98364	480	1.8296341097634
9	103711	500	1.599479081868
9	109052	520	2.2059069882988
9	114513	540	1.6116950628484
9	119834	560	1.9767883821219
9	125090	580	1.8451252476423
9	130453	600	1.6954026789829
9	135776	620	1.9412855904245
9	141108	640	1.5551056479379
9	146390	660	2.0797202137166
9	151848	680	1.7318657495196
9	157180	700	1.9531368589384
9	162525	720	2.0431324587267
9	167933	740	1.3358949751441
9	173174	760	1.6490943560397
9	178446	780	1.7915792188907
9	183816	800	1.575249268024
9	189133	820	1.9427790002732
9	194389	840	1.7155024680684
9	199680	860	1.4397480661307
9	204913	880	1.5248725085532
9	210219	900	1.9478785304096
9	215481	920	2.0850805681339
9	220820	940	1.6424253333439
9	226124	960	1.6004806970215
9	231461	980	1.5133551805307
9	236662	1000	1.4785921742704
9	241983	1020	1.979775794155
9	247278	1040	1.8116432546314
9	252612	1060	1.4482958867613
9	257845	1080	1.842298042737
9	263121	1100	2.15727748652
9	268399	1120	1.5325527556068
9	273679	1140	1.6623662467885
9	278949	1160	1.8249624119083
9	284338	1180	1.7466084351225
9	289748	1200	1.9390090504072
9	295062	1220	1.997254212724
9	300310	1240	2.0094244884118
9	305680	1260	1.1818464932483
9	310955	1280	1.92290430745
9	316319	1300	1.7612277186449
9	321616	1320	1.6059101370939
9	327107	1340	2.004785216193
9	332443	1360	1.9355332079095
9	337786	1380	1.985685956527
9	343174	1400	2.0024024032685
9	348450	1420	1.7967206594808
9	353737	1440	1.9487331719889
9	359142	1460	1.3243285671789
9	364621	1480	2.0395480130561
9	369994	1500	1.7274184087749
9	375337	1520	1.3794324949403
9	380626	1540	1.6050695664333
9	385941	1560	2.0976176963403
9	391205	1580	1.893985081034
9	396483	1600	1.936806524203
9	401812	1620	2.1738467646312
9	407252	1640	1.7874904059098
9	412508	1660	1.7740063459637
9	417780	1680	1.4568582283242
9	423103	1700	1.3846688023884
9	428431	1720	1.8278081667782
9	433758	1740	1.5081081671758
9	439064	1760	1.2730996528339
9	444495	1780	1.9813151581961
9	449832	1800	1.6322078801741
9	454628	1820	1.4831384627538
9	458934	1840	1.762351370454
9	462716	1860	1.5678215830027
9	466077	1880	1.6853651949817
9	468944	1900	1.8318655041505
9	471411	1920	2.0124611797498
9	473409	1940	1.9140007034509
9	474928	1960	1.4675987714107
9	475979	1980	0.94387980744854
9	476565	2000	1.4638501094228
10	34481	240	3.9480769230769
10	39784	260	3.4333333333333
10	45164	280	2.3788461538462
10	50472	300	1.5357624831309
10	55758	320	2.8102564102564
10	60968	340	2.1634615384615
10	66230	360	2.025641025641
10	71628	380	2.6558704453441
10	76963	400	3.8121951219512
10	82308	420	2.3252361673414
10	87628	440	3.9871794871795
10	93007	460	3.909756097561
10	98364	480	3.3475609756098
10	103711	500	2.5583333333333
10	109052	520	4.8660256410256
10	114513	540	2.5975609756098
10	119834	560	3.9076923076923
10	125090	580	3.4044871794872
10	130453	600	2.8743902439024
10	135776	620	3.7685897435897
10	141108	640	2.4183535762483
10	146390	660	4.3252361673414
10	151848	680	2.999358974359
10	157180	700	3.8147435897436
10	162525	720	4.1743902439024
10	167933	740	1.7846153846154
10	173174	760	2.719512195122
10	178446	780	3.209756097561
10	183816	800	2.4814102564103
10	189133	820	3.7743902439024
10	194389	840	2.9429487179487
10	199680	860	2.0728744939271
10	204913	880	2.3252361673414
10	210219	900	3.7942307692308
10	215481	920	4.3475609756098
10	220820	940	2.6975609756098
10	226124	960	2.5615384615385
10	231461	980	2.290243902439
10	236662	1000	2.1862348178138
10	241983	1020	3.919512195122
10	247278	1040	3.2820512820513
10	252612	1060	2.0975609756098
10	257845	1080	3.3940620782726
10	263121	1100	4.6538461538462
10	268399	1120	2.3487179487179
10	273679	1140	2.7634615384615
10	278949	1160	3.330487804878
10	284338	1180	3.050641025641
10	289748	1200	3.759756097561
10	295062	1220	3.9890243902439
10	300310	1240	4.0377867746289
10	305680	1260	1.3967611336032
10	310955	1280	3.6975609756098
10	316319	1300	3.1019230769231
10	321616	1320	2.5789473684211
10	327107	1340	4.0191637630662
10	332443	1360	3.7462887989204
10	337786	1380	3.9429487179487
10	343174	1400	4.0096153846154
10	348450	1420	3.2282051282051
10	353737	1440	3.7975609756098
10	359142	1460	1.7538461538462
10	364621	1480	4.159756097561
10	369994	1500	2.9839743589744
10	375337	1520	1.9028340080972
10	380626	1540	2.5762483130904
10	385941	1560	4.4
10	391205	1580	3.5871794871795
10	396483	1600	3.7512195121951
10	401812	1620	4.7256097560976
10	407252	1640	3.1951219512195
10	412508	1660	3.1470985155196
10	417780	1680	2.1224358974359
10	423103	1700	1.9173076923077
10	428431	1720	3.3408826945412
10	433758	1740	2.2743902439024
10	439064	1760	1.6207827260459
10	444495	1780	3.9256097560976
10	449832	1800	2.6641025641026
10	454628	1820	2.1996996996997
10	458934	1840	3.1058823529412
10	462716	1860	2.458064516129
10	466077	1880	2.8404558404558
10	468944	1900	3.3557312252964
10	471411	1920	4.05
10	473409	1940	3.6633986928105
10	474928	1960	2.1538461538462
10	475979	1980	0.89090909090909
10	476565	2000	2.1428571428571
11	34481	240	140.66887772056
11	39784	260	228.67494759396
11	45164	280	95.090950986487
11	50472	300	94.776949127665
11	55758	320	90.685607759821
11	60968	340	142.9624648288
11	66230	360	184.86442257047
11	71628	380	89.320650391041
11	76963	400	182.83972503005
11	82308	420	137.20051540912
11	87628	440	324.57644116599
11	93007	460	46.729133448843
11	98364	480	45.379313589222
11	103711	500	229.57235596914
11	109052	520	142.68264372034
11	114513	540	185.48959088643
11	119834	560	92.049056269942
11	125090	580	49.105435693071
11	130453	600	183.94855052052
11	135776	620	231.15380130692
11	141108	640	230.47802399541
11	146390	660	90.145142979966
11	151848	680	141.91980337782
11	157180	700	92.199182044359
11	162525	720	94.527018223393
11	167933	740	179.08700262544
11	173174	760	275.15003455794
11	178446	780	183.54914898007
11	183816	800	138.68032474732
11	189133	820	134.84505081798
11	194389	840	186.18387019367
11	199680	860	90.082906507246
11	204913	880	182.30776315034
11	210219	900	282.76096457081
11	215481	920	91.096337463781
11	220820	940	46.033689901783
11	226124	960	136.86064908945
11	231461	980	228.37880202816
11	236662	1000	46.313406012512
11	241983	1020	226.132161202
11	247278	1040	90.794358568461
11	252612	1060	229.32767275212
11	257845	1080	43.581848889768
11	263121	1100	138.16793958746
11	268399	1120	91.259637930601
11	273679	1140	183.11182161549
11	278949	1160	0
11	284338	1180	190.75395699055
11	289748	1200	190.81844378353
11	295062	1220	44.72268941442
11	300310	1240	92.691137316318
11	305680	1260	46.921440516174
11	310955	1280	230.54964394592
11	316319	1300	0
11	321616	1320	92.997913454497
11	327107	1340	227.55175107438
11	332443	1360	49.826059967454
11	337786	1380	274.23394961653
11	343174	1400	187.03548468382
11	348450	1420	279.69222586976
11	353737	1440	188.04722527674
11	359142	1460	88.725771327244
11	364621	1480	187.46350364565
11	369994	1500	233.96081613978
11	375337	1520	181.35976985675
11	380626	1540	45.191455234788
11	385941	1560	328.08913860708
11	391205	1580	144.52946876703
11	396483	1600	239.45858659817
11	401812	1620	273.0420968507
11	407252	1640	228.55222601551
11	412508	1660	231.49514716784
11	417780	1680	273.61173852957
11	423103	1700	182.91318329471
11	428431	1720	91.855206895498
11	433758	1740	230.49048506052
11	439064	1760	138.42481348644
11	444495	1780	142.03835968233
11	449832	1800	186.26765680413
11	454628	1820	48.559448524831
11	458934	1840	136.35881171527
11	462716	1860	187.4990440887
11	466077	1880	47.062089235419
11	468944	1900	46.638047995326
11	471411	1920	94.098515207841
11	473409	1940	94.240859127204
11	474928	1960	48.155394996732
11	475979	1980	49.850804288283
11	476565	2000	49.020337785935
12	34481	240	46.889625906854
12	39784	260	45.734989518792
12	45164	280	47.545475493244
12	50472	300	47.388474563832
12	55758	320	45.342803879911
12	60968	340	47.654154942935
12	66230	360	46.216105642617
12	71628	380	44.660325195521
12	76963	400	45.709931257512
12	82308	420	45.733505136373
12	87628	440	46.368063023713
12	93007	460	46.729133448843
12	98364	480	45.379313589222
12	103711	500	45.914471193829
12	109052	520	47.560881240112
12	114513	540	46.372397721607
12	119834	560	46.024528134971
12	125090	580	49.105435693071
12	130453	600	45.987137630129
12	135776	620	46.230760261383
12	141108	640	46.095604799083
12	146390	660	45.072571489983
12	151848	680	47.30660112594
12	157180	700	46.09959102218
12	162525	720	47.263509111697
12	167933	740	44.771750656361
12	173174	760	45.85833909299
12	178446	780	45.887287245018
12	183816	800	46.226774915773
12	189133	820	44.948350272659
12	194389	840	46.545967548418
12	199680	860	45.041453253623
12	204913	880	45.576940787585
12	210219	900	47.126827428469
12	215481	920	45.54816873189
12	220820	940	46.033689901783
12	226124	960	45.62021636315
12	231461	980	45.675760405632
12	236662	1000	46.313406012512
12	241983	1020	45.2264322404
12	247278	1040	45.397179284231
12	252612	1060	45.865534550424
12	257845	1080	43.581848889768
12	263121	1100	46.055979862486
12	268399	1120	45.6298189653
12	273679	1140	45.777955403872
12	278949	1160	nan
12	284338	1180	47.688489247637
12	289748	1200	47.704610945882
12	295062	1220	44.72268941442
12	300310	1240	46.345568658159
12	305680	1260	46.921440516174
12	310955	1280	46.109928789184
12	316319	1300	nan
12	321616	1320	46.498956727249
12	327107	1340	45.510350214876
12	332443	1360	49.826059967454
12	337786	1380	45.705658269421
12	343174	1400	46.758871170956
12	348450	1420	46.615370978293
12	353737	1440	47.011806319185
12	359142	1460	44.362885663622
12	364621	1480	46.865875911412
12	369994	1500	46.792163227956
12	375337	1520	45.339942464189
12	380626	1540	45.191455234788
12	385941	1560	46.869876943869
12	391205	1580	48.176489589009
12	396483	1600	47.891717319634
12	401812	1620	45.507016141784
12	407252	1640	45.710445203102
12	412508	1660	46.299029433567
12	417780	1680	45.601956421596
12	423103	1700	45.728295823678
12	428431	1720	45.927603447749
12	433758	1740	46.098097012104
12	439064	1760	46.14160449548
12	444495	1780	47.346119894111
12	449832	1800	46.566914201032
12	454628	1820	48.559448524831
12	458934	1840	45.452937238424
12	462716	1860	46.874761022175
12	466077	1880	47.062089235419
12	468944	1900	46.638047995326
12	471411	1920	47.049257603921
12	473409	1940	47.120429563602
12	474928	1960	48.155394996732
12	475979	1980	49.850804288283
12	476565	2000	49.020337785935
13	34481	240	0.60891090630915
13	39784	260	1.0249430483472
13	45164	280	2.7668057082829
13	50472	300	1.173466442571
13	55758	320	1.5884891294411
13	60968	340	5.4147334872212
13	66230	360	0.77745738279879
13	71628	380	0.095880317784632
13	76963	400	1.747267093378
13	82308	420	0.54155987133072
13	87628	440	1.3120117508311
13	93007	460	nan
13	98364	480	nan
13	103711	500	0.68841024956714
13	109052	520	2.7419660960637
13	114513	540	1.3977208793455
13	119834	560	1.3683316174964
13	125090	580	nan
13	130453	600	1.6113381619702
13	135776	620	0.98685558584676
13	141108	640	0.63139046956165
13	146390	660	0.062430048414432
13	151848	680	2.3986423076276
13	157180	700	0.6902107946702
13	162525	720	2.0914058511829
13	167933	740	0.70337859058629
13	173174	760	0.96334756696757
13	178446	780	3.0424979877517
13	183816	800	0.69018996269952
13	189133	820	0.24222015438772
13	194389	840	3.2144563659756
13	199680	860	0.040322396040714
13	204913	880	1.4760333160781
13	210219	900	1.9345528779397
13	215481	920	0.73991226187652
13	220820	940	nan
13	226124	960	1.4561085977319
13	231461	980	0.58940727564201
13	236662	1000	nan
13	241983	1020	0.88221288857384
13	247278	1040	0.81762918052671
13	252612	1060	0.965135558816
13	257845	1080	nan
13	263121	1100	0.60590512686518
13	268399	1120	1.0728527973792
13	273679	1140	1.7888429461372
13	278949	1160	nan
13	284338	1180	3.9696942194598
13	289748	1200	1.9618205475197
13	295062	1220	nan
13	300310	1240	0.44627471552931
13	305680	1260	nan
13	310955	1280	0.61497200997585
13	316319	1300	nan
13	321616	1320	1.848345863183
13	327107	1340	0.89970412169462
13	332443	1360	nan
13	337786	1380	0.7883860434925
13	343174	1400	2.9473495378687
13	348450	1420	2.4816808119649
13	353737	1440	1.5070859527328
13	359142	1460	0.76761033036165
13	364621	1480	1.5862206932095
13	369994	1500	1.5138120571561
13	375337	1520	0.47680094073054
13	380626	1540	nan
13	385941	1560	2.8203863743835
13	391205	1580	1.7372735535323
13	396483	1600	4.2967593598967
13	401812	1620	1.5745106149419