file 71144 1427379305                                           
version 2
run statisticRVV-191-20150325-23:44:17-25252
attr c 8
attr configname statisticRVV
attr datetime 20150325-23:44:17
attr experiment statisticRVV
attr inifile omnetpp.ini
attr iterationvars "$sc=\"erlangen-medium.launchd.xml\", $p=1/8, $c=8"
attr iterationvars2 "$sc=\"erlangen-medium.launchd.xml\", $p=1/8, $c=8, $repetition=1"
attr measurement "$sc=\"erlangen-medium.launchd.xml\", $p=1/8, $c=8"
attr network RSUExampleScenario
attr p 1/8
attr processid 25252
attr repetition 1
attr replication #1
attr resultdir results
attr runnumber 191
attr sc "\"erlangen-medium.launchd.xml\""
attr seedset 191
vector 0  RSUExampleScenario.rsu[0].appl  Number_CH  ETV
0	2367 1606 145422 6960623 240 2000 89 5 23 1172 17124
vector 1  RSUExampleScenario.rsu[0].appl  Number_ON  ETV
1	3973 1618 145422 6960623 240 2000 89 8 36 1645 34517
vector 2  RSUExampleScenario.rsu[0].appl  Number_FN  ETV
2	5591 1682 145422 6960623 240 2000 89 56 163 9605 1091433
vector 3  RSUExampleScenario.rsu[0].appl  Number_CH_Losts  ETV
3	7273 1540 145422 6960623 240 2000 89 0 11 326 1628
vector 4  RSUExampleScenario.rsu[0].appl  Mean_Cluster_Size  ETV
4	8813 2497 145422 6960623 240 2000 89 1.0909090909091 1.7272727272727 123.94149626977 174.41448690895
vector 5  RSUExampleScenario.rsu[0].appl  StdDev_Cluster_Size  ETV
5	11310 2841 145422 6960623 240 2000 89 0.30151134457776 0.74402380914284 43.63768039884 21.679832859891
vector 6  RSUExampleScenario.rsu[0].appl  Variance_Cluster_Size  ETV
6	14151 2801 145422 6960623 240 2000 89 0.090909090909091 0.55357142857143 21.679832859891 5.5688876213471
vector 7  RSUExampleScenario.rsu[0].appl  Mean_Neighbors  ETV
7	16952 2713 145422 6960623 240 2000 89 21.762886597938 61.211340206186 3348.11716326 140738.21666999
vector 8  RSUExampleScenario.rsu[0].appl  StdDev_Neighbors  ETV
8	19665 2775 145422 6960623 240 2000 89 3.2394743082825 31.186746142907 1367.4483499068 29355.211218747
vector 9  RSUExampleScenario.rsu[0].appl  Variance_Neighbors  ETV
9	22440 2757 145422 6960623 240 2000 89 10.494193794022 972.61313498211 29355.211218747 18996434.62741
vector 10  RSUExampleScenario.rsu[0].appl  Total_CH_Utility  ETV
10	25197 2865 145422 6960623 240 2000 89 248.14608275542 1179.2488883357 58214.017889806 42568904.570829
vector 11  RSUExampleScenario.rsu[0].appl  Mean_CH_Utility  ETV
11	28062 2860 145422 6960623 240 2000 89 46.279831186253 51.445291978591 4403.8483336265 218024.01020806
vector 12  RSUExampleScenario.rsu[0].appl  StdDev_CH_Utility  ETV
12	30922 2861 145422 6960623 240 2000 89 0.70583665381189 5.0854981228977 211.09843453579 537.76808641985
vector 13  RSUExampleScenario.rsu[0].appl  Variance_CH_Utility  ETV
13	33783 2862 145422 6960623 240 2000 89 0.49820538186437 25.862291157997 537.76808641985 4370.9353854871
vector 14  RSUExampleScenario.rsu[0].appl  Total_exp_CH_Utility  ETV
14	36645 2864 145422 6960623 240 2000 89 271.61944706063 1371.5567204414 68211.401458108 57830705.541038
vector 15  RSUExampleScenario.rsu[0].appl  Mean_exp_CH_Utility  ETV
15	39509 2861 145422 6960623 240 2000 89 44.742289282709 46.141753963193 4050.0261017124 184307.16443431
vector 16  RSUExampleScenario.rsu[0].appl  StdDev_exp_CH_Utility  ETV
16	42370 2901 145422 6960623 240 2000 89 0.24235400750338 1.8396888984661 91.833735869023 101.11586278612
vector 17  RSUExampleScenario.rsu[0].appl  Variance_exp_CH_Utility  ETV
17	45271 2904 145422 6960623 240 2000 89 0.05873546495295 3.3844552431394 101.11586278612 144.13311259933
vector 18  RSUExampleScenario.rsu[0].appl  Total_ON_Utility  ETV
18	48175 2863 145422 6960623 240 2000 89 1725.1039022304 6445.4894257193 341696.02936369 1472060061.9307
vector 19  RSUExampleScenario.rsu[0].appl  Mean_ON_Utility  ETV
19	51038 2855 145422 6960623 240 2000 89 47.399602181865 51.289139294559 4428.5465936122 220447.399056
vector 20  RSUExampleScenario.rsu[0].appl  StdDev_ON_Utility  ETV
20	53893 2861 145422 6960623 240 2000 89 2.0260188259193 3.711824613365 242.48412574306 671.09477084966
vector 21  RSUExampleScenario.rsu[0].appl  Variance_ON_Utility  ETV
21	56754 2860 145422 6960623 240 2000 89 4.1047522829792 13.777641960382 671.09477084965 5392.513690002
vector 22  RSUExampleScenario.rsu[0].appl  Total_exp_ON_Utility  ETV
22	59614 2863 145422 6960623 240 2000 89 3004.3347093028 7978.9300510344 497117.3564196 2923764958.9718
vector 23  RSUExampleScenario.rsu[0].appl  Mean_exp_ON_Utility  ETV
23	62477 2863 145422 6960623 240 2000 89 44.840816556758 45.771544848082 4051.4266241987 184431.73354739
vector 24  RSUExampleScenario.rsu[0].appl  StdDev_exp_ON_Utility  ETV
24	65340 2904 145422 6960623 240 2000 89 0.38375748314608 1.558971413611 92.072983328502 99.409345664667
vector 25  RSUExampleScenario.rsu[0].appl  Variance_exp_ON_Utility  ETV
25	68244 2900 145422 6960623 240 2000 89 0.14726980587061 2.4303918684562 99.409345664667 128.40869755985
