version 2
run statisticRVV-94-20150325-04:10:16-8240
attr c 4
attr configname statisticRVV
attr datetime 20150325-04:10:16
attr experiment statisticRVV
attr inifile omnetpp.ini
attr iterationvars "$sc=\"erlangen-low.launchd.xml\", $p=1/5, $c=4"
attr iterationvars2 "$sc=\"erlangen-low.launchd.xml\", $p=1/5, $c=4, $repetition=4"
attr measurement "$sc=\"erlangen-low.launchd.xml\", $p=1/5, $c=4"
attr network RSUExampleScenario
attr p 1/5
attr processid 8240
attr repetition 4
attr replication #4
attr resultdir results
attr runnumber 94
attr sc "\"erlangen-low.launchd.xml\""
attr seedset 94

vector 0  RSUExampleScenario.rsu[0].appl  Number_CH  ETV
vector 1  RSUExampleScenario.rsu[0].appl  Number_ON  ETV
vector 2  RSUExampleScenario.rsu[0].appl  Number_FN  ETV
vector 3  RSUExampleScenario.rsu[0].appl  Number_CH_Losts  ETV
vector 4  RSUExampleScenario.rsu[0].appl  Mean_Cluster_Size  ETV
vector 5  RSUExampleScenario.rsu[0].appl  StdDev_Cluster_Size  ETV
vector 6  RSUExampleScenario.rsu[0].appl  Variance_Cluster_Size  ETV
vector 7  RSUExampleScenario.rsu[0].appl  Mean_Neighbors  ETV
vector 8  RSUExampleScenario.rsu[0].appl  StdDev_Neighbors  ETV
vector 9  RSUExampleScenario.rsu[0].appl  Variance_Neighbors  ETV
vector 10  RSUExampleScenario.rsu[0].appl  Total_CH_Utility  ETV
vector 11  RSUExampleScenario.rsu[0].appl  Mean_CH_Utility  ETV
vector 12  RSUExampleScenario.rsu[0].appl  StdDev_CH_Utility  ETV
vector 13  RSUExampleScenario.rsu[0].appl  Variance_CH_Utility  ETV
vector 14  RSUExampleScenario.rsu[0].appl  Total_exp_CH_Utility  ETV
vector 15  RSUExampleScenario.rsu[0].appl  Mean_exp_CH_Utility  ETV
vector 16  RSUExampleScenario.rsu[0].appl  StdDev_exp_CH_Utility  ETV
vector 17  RSUExampleScenario.rsu[0].appl  Variance_exp_CH_Utility  ETV
vector 18  RSUExampleScenario.rsu[0].appl  Total_ON_Utility  ETV
vector 19  RSUExampleScenario.rsu[0].appl  Mean_ON_Utility  ETV
vector 20  RSUExampleScenario.rsu[0].appl  StdDev_ON_Utility  ETV
vector 21  RSUExampleScenario.rsu[0].appl  Variance_ON_Utility  ETV
vector 22  RSUExampleScenario.rsu[0].appl  Total_exp_ON_Utility  ETV
vector 23  RSUExampleScenario.rsu[0].appl  Mean_exp_ON_Utility  ETV
vector 24  RSUExampleScenario.rsu[0].appl  StdDev_exp_ON_Utility  ETV
vector 25  RSUExampleScenario.rsu[0].appl  Variance_exp_ON_Utility  ETV
0	34463	240	2
0	39848	260	8
0	45193	280	6
0	50514	300	8
0	55799	320	8
0	61130	340	5
0	66481	360	8
0	71720	380	4
0	76993	400	6
0	82308	420	6
0	87732	440	10
0	92986	460	5
0	98115	480	6
0	103417	500	6
0	108790	520	5
0	113938	540	6
0	119261	560	5
0	124606	580	8
0	129858	600	10
0	135112	620	5
0	140573	640	3
0	145907	660	7
0	151189	680	5
0	156618	700	3
0	161994	720	4
0	167337	740	5
0	172672	760	5
0	178108	780	11
0	183485	800	4
0	188804	820	7
0	194158	840	9
0	199493	860	4
0	204830	880	4
0	210067	900	6
0	215413	920	7
0	220717	940	5
0	225977	960	5
0	231323	980	6
0	236593	1000	5
0	241712	1020	7
0	246960	1040	7
0	252337	1060	4
0	257648	1080	6
0	262936	1100	9
0	268299	1120	5
0	273610	1140	2
0	278868	1160	6
0	284180	1180	3
0	289512	1200	10
0	294822	1220	2
0	300199	1240	3
0	305517	1260	5
0	310846	1280	7
0	316128	1300	7
0	321434	1320	7
0	326773	1340	6
0	332247	1360	6
0	337522	1380	5
0	342861	1400	7
0	348161	1420	9
0	353409	1440	6
0	358767	1460	7
0	364104	1480	5
0	369277	1500	6
0	374681	1520	7
0	380028	1540	5
0	385332	1560	6
0	390673	1580	3
0	395932	1600	7
0	401099	1620	5
0	406441	1640	6
0	411886	1660	7
0	417290	1680	6
0	422699	1700	5
0	428026	1720	7
0	433367	1740	6
0	438653	1760	6
0	444040	1780	4
0	449326	1800	7
0	454158	1820	6
0	458452	1840	3
0	462151	1860	4
0	465502	1880	4
0	468381	1900	2
0	470860	1920	5
0	472931	1940	3
0	474476	1960	0
0	475533	1980	0
0	476095	2000	1
1	34463	240	2
1	39848	260	9
1	45193	280	8
1	50514	300	8
1	55799	320	11
1	61130	340	6
1	66481	360	11
1	71720	380	7
1	76993	400	8
1	82308	420	6
1	87732	440	11
1	92986	460	7
1	98115	480	9
1	103417	500	8
1	108790	520	6
1	113938	540	9
1	119261	560	7
1	124606	580	9
1	129858	600	15
1	135112	620	7
1	140573	640	3
1	145907	660	9
1	151189	680	7
1	156618	700	5
1	161994	720	5
1	167337	740	9
1	172672	760	5
1	178108	780	14
1	183485	800	5
1	188804	820	11
1	194158	840	12
1	199493	860	5
1	204830	880	5
1	210067	900	8
1	215413	920	9
1	220717	940	8
1	225977	960	8
1	231323	980	8
1	236593	1000	7
1	241712	1020	7
1	246960	1040	11
1	252337	1060	5
1	257648	1080	8
1	262936	1100	13
1	268299	1120	7
1	273610	1140	3
1	278868	1160	8
1	284180	1180	4
1	289512	1200	13
1	294822	1220	3
1	300199	1240	4
1	305517	1260	7
1	310846	1280	9
1	316128	1300	11
1	321434	1320	8
1	326773	1340	9
1	332247	1360	7
1	337522	1380	7
1	342861	1400	9
1	348161	1420	13
1	353409	1440	8
1	358767	1460	8
1	364104	1480	6
1	369277	1500	8
1	374681	1520	8
1	380028	1540	7
1	385332	1560	9
1	390673	1580	4
1	395932	1600	9
1	401099	1620	5
1	406441	1640	7
1	411886	1660	11
1	417290	1680	7
1	422699	1700	6
1	428026	1720	10
1	433367	1740	8
1	438653	1760	9
1	444040	1780	5
1	449326	1800	9
1	454158	1820	7
1	458452	1840	4
1	462151	1860	6
1	465502	1880	7
1	468381	1900	2
1	470860	1920	6
1	472931	1940	3
1	474476	1960	0
1	475533	1980	0
1	476095	2000	2
2	34463	240	36
2	39848	260	24
2	45193	280	26
2	50514	300	25
2	55799	320	21
2	61130	340	29
2	66481	360	21
2	71720	380	28
2	76993	400	25
2	82308	420	29
2	87732	440	20
2	92986	460	27
2	98115	480	25
2	103417	500	26
2	108790	520	30
2	113938	540	25
2	119261	560	28
2	124606	580	23
2	129858	600	15
2	135112	620	28
2	140573	640	35
2	145907	660	25
2	151189	680	28
2	156618	700	33
2	161994	720	32
2	167337	740	27
2	172672	760	30
2	178108	780	15
2	183485	800	32
2	188804	820	21
2	194158	840	19
2	199493	860	31
2	204830	880	32
2	210067	900	26
2	215413	920	25
2	220717	940	28
2	225977	960	27
2	231323	980	26
2	236593	1000	28
2	241712	1020	26
2	246960	1040	22
2	252337	1060	32
2	257648	1080	27
2	262936	1100	19
2	268299	1120	28
2	273610	1140	35
2	278868	1160	27
2	284180	1180	33
2	289512	1200	17
2	294822	1220	36
2	300199	1240	34
2	305517	1260	28
2	310846	1280	26
2	316128	1300	23
2	321434	1320	26
2	326773	1340	26
2	332247	1360	27
2	337522	1380	29
2	342861	1400	24
2	348161	1420	17
2	353409	1440	25
2	358767	1460	25
2	364104	1480	30
2	369277	1500	27
2	374681	1520	26
2	380028	1540	29
2	385332	1560	26
2	390673	1580	33
2	395932	1600	24
2	401099	1620	30
2	406441	1640	28
2	411886	1660	23
2	417290	1680	27
2	422699	1700	30
2	428026	1720	24
2	433367	1740	25
2	438653	1760	25
2	444040	1780	32
2	449326	1800	25
2	454158	1820	25
2	458452	1840	26
2	462151	1860	20
2	465502	1880	16
2	468381	1900	20
2	470860	1920	10
2	472931	1940	12
2	474476	1960	14
2	475533	1980	10
2	476095	2000	5
3	34463	240	5
3	39848	260	2
3	45193	280	5
3	50514	300	5
3	55799	320	1
3	61130	340	2
3	66481	360	1
3	71720	380	0
3	76993	400	3
3	82308	420	1
3	87732	440	2
3	92986	460	1
3	98115	480	3
3	103417	500	3
3	108790	520	2
3	113938	540	2
3	119261	560	3
3	124606	580	7
3	129858	600	2
3	135112	620	1
3	140573	640	1
3	145907	660	1
3	151189	680	4
3	156618	700	9
3	161994	720	3
3	167337	740	2
3	172672	760	2
3	178108	780	4
3	183485	800	3
3	188804	820	5
3	194158	840	1
3	199493	860	0
3	204830	880	2
3	210067	900	1
3	215413	920	4
3	220717	940	4
3	225977	960	3
3	231323	980	3
3	236593	1000	4
3	241712	1020	2
3	246960	1040	5
3	252337	1060	5
3	257648	1080	2
3	262936	1100	4
3	268299	1120	3
3	273610	1140	3
3	278868	1160	3
3	284180	1180	2
3	289512	1200	3
3	294822	1220	4
3	300199	1240	4
3	305517	1260	3
3	310846	1280	3
3	316128	1300	4
3	321434	1320	3
3	326773	1340	1
3	332247	1360	4
3	337522	1380	3
3	342861	1400	3
3	348161	1420	0
3	353409	1440	2
3	358767	1460	2
3	364104	1480	2
3	369277	1500	2
3	374681	1520	4
3	380028	1540	3
3	385332	1560	2
3	390673	1580	2
3	395932	1600	3
3	401099	1620	1
3	406441	1640	0
3	411886	1660	1
3	417290	1680	1
3	422699	1700	2
3	428026	1720	0
3	433367	1740	2
3	438653	1760	2
3	444040	1780	3
3	449326	1800	3
3	454158	1820	3
3	458452	1840	0
3	462151	1860	3
3	465502	1880	0
3	468381	1900	0
3	470860	1920	1
3	472931	1940	0
3	474476	1960	0
3	475533	1980	2
3	476095	2000	0
4	34463	240	1
4	39848	260	1.125
4	45193	280	1.3333333333333
4	50514	300	1
4	55799	320	1.375
4	61130	340	1.2
4	66481	360	1.375
4	71720	380	1.75
4	76993	400	1.3333333333333
4	82308	420	1
4	87732	440	1.1
4	92986	460	1.4
4	98115	480	1.5
4	103417	500	1.3333333333333
4	108790	520	1.2
4	113938	540	1.5
4	119261	560	1.4
4	124606	580	1.125
4	129858	600	1.5
4	135112	620	1.4
4	140573	640	1
4	145907	660	1.2857142857143
4	151189	680	1.4
4	156618	700	1.6666666666667
4	161994	720	1.25
4	167337	740	1.8
4	172672	760	1
4	178108	780	1.2727272727273
4	183485	800	1.25
4	188804	820	1.5714285714286
4	194158	840	1.3333333333333
4	199493	860	1.25
4	204830	880	1.25
4	210067	900	1.3333333333333
4	215413	920	1.2857142857143
4	220717	940	1.6
4	225977	960	1.6
4	231323	980	1.3333333333333
4	236593	1000	1.4
4	241712	1020	1
4	246960	1040	1.5714285714286
4	252337	1060	1.25
4	257648	1080	1.3333333333333
4	262936	1100	1.4444444444444
4	268299	1120	1.4
4	273610	1140	1.5
4	278868	1160	1.3333333333333
4	284180	1180	1.3333333333333
4	289512	1200	1.3
4	294822	1220	1.5
4	300199	1240	1.3333333333333
4	305517	1260	1.4
4	310846	1280	1.2857142857143
4	316128	1300	1.5714285714286
4	321434	1320	1.1428571428571
4	326773	1340	1.5
4	332247	1360	1.1666666666667
4	337522	1380	1.4
4	342861	1400	1.2857142857143
4	348161	1420	1.4444444444444
4	353409	1440	1.3333333333333
4	358767	1460	1.1428571428571
4	364104	1480	1.2
4	369277	1500	1.3333333333333
4	374681	1520	1.1428571428571
4	380028	1540	1.4
4	385332	1560	1.5
4	390673	1580	1.3333333333333
4	395932	1600	1.2857142857143
4	401099	1620	1
4	406441	1640	1.1666666666667
4	411886	1660	1.5714285714286
4	417290	1680	1.1666666666667
4	422699	1700	1.2
4	428026	1720	1.4285714285714
4	433367	1740	1.3333333333333
4	438653	1760	1.5
4	444040	1780	1.25
4	449326	1800	1.2857142857143
4	454158	1820	1.1666666666667
4	458452	1840	1.3333333333333
4	462151	1860	1.5
4	465502	1880	1.75
4	468381	1900	1
4	470860	1920	1.2
4	472931	1940	1
4	474476	1960	nan
4	475533	1980	nan
4	476095	2000	2
5	34463	240	0
5	39848	260	0.35355339059327
5	45193	280	0.51639777949432
5	50514	300	0
5	55799	320	0.51754916950677
5	61130	340	0.44721359549996
5	66481	360	0.51754916950677
5	71720	380	0.5
5	76993	400	0.51639777949432
5	82308	420	0
5	87732	440	0.31622776601684
5	92986	460	0.54772255750517
5	98115	480	0.54772255750517
5	103417	500	0.51639777949432
5	108790	520	0.44721359549996
5	113938	540	0.54772255750517
5	119261	560	0.54772255750517
5	124606	580	0.35355339059327
5	129858	600	0.52704627669473
5	135112	620	0.54772255750517
5	140573	640	0
5	145907	660	0.48795003647427
5	151189	680	0.54772255750517
5	156618	700	0.57735026918963
5	161994	720	0.5
5	167337	740	0.44721359549996
5	172672	760	0
5	178108	780	0.46709936649691
5	183485	800	0.5
5	188804	820	0.53452248382485
5	194158	840	0.5
5	199493	860	0.5
5	204830	880	0.5
5	210067	900	0.51639777949432
5	215413	920	0.48795003647427
5	220717	940	0.54772255750517
5	225977	960	0.54772255750517
5	231323	980	0.51639777949432
5	236593	1000	0.54772255750517
5	241712	1020	0
5	246960	1040	0.53452248382485
5	252337	1060	0.5
5	257648	1080	0.51639777949432
5	262936	1100	0.52704627669473
5	268299	1120	0.54772255750517
5	273610	1140	0.70710678118655
5	278868	1160	0.51639777949432
5	284180	1180	0.57735026918963
5	289512	1200	0.48304589153965
5	294822	1220	0.70710678118655
5	300199	1240	0.57735026918963
5	305517	1260	0.54772255750517
5	310846	1280	0.48795003647427
5	316128	1300	0.53452248382485
5	321434	1320	0.37796447300923
5	326773	1340	0.54772255750517
5	332247	1360	0.40824829046386
5	337522	1380	0.54772255750517
5	342861	1400	0.48795003647427
5	348161	1420	0.52704627669473
5	353409	1440	0.51639777949432
5	358767	1460	0.37796447300923
5	364104	1480	0.44721359549996
5	369277	1500	0.51639777949432
5	374681	1520	0.37796447300923
5	380028	1540	0.54772255750517
5	385332	1560	0.54772255750517
5	390673	1580	0.57735026918963
5	395932	1600	0.48795003647427
5	401099	1620	0
5	406441	1640	0.40824829046386
5	411886	1660	0.53452248382485
5	417290	1680	0.40824829046386
5	422699	1700	0.44721359549996
5	428026	1720	0.53452248382485
5	433367	1740	0.51639777949432
5	438653	1760	0.54772255750517
5	444040	1780	0.5
5	449326	1800	0.48795003647427
5	454158	1820	0.40824829046386
5	458452	1840	0.57735026918963
5	462151	1860	0.57735026918963
5	465502	1880	0.5
5	468381	1900	0
5	470860	1920	0.44721359549996
5	472931	1940	0
5	474476	1960	nan
5	475533	1980	nan
5	476095	2000	nan
6	34463	240	0
6	39848	260	0.125
6	45193	280	0.26666666666667
6	50514	300	0
6	55799	320	0.26785714285714
6	61130	340	0.2
6	66481	360	0.26785714285714
6	71720	380	0.25
6	76993	400	0.26666666666667
6	82308	420	0
6	87732	440	0.1
6	92986	460	0.3
6	98115	480	0.3
6	103417	500	0.26666666666667
6	108790	520	0.2
6	113938	540	0.3
6	119261	560	0.3
6	124606	580	0.125
6	129858	600	0.27777777777778
6	135112	620	0.3
6	140573	640	0
6	145907	660	0.23809523809524
6	151189	680	0.3
6	156618	700	0.33333333333333
6	161994	720	0.25
6	167337	740	0.2
6	172672	760	0
6	178108	780	0.21818181818182
6	183485	800	0.25
6	188804	820	0.28571428571429
6	194158	840	0.25
6	199493	860	0.25
6	204830	880	0.25
6	210067	900	0.26666666666667
6	215413	920	0.23809523809524
6	220717	940	0.3
6	225977	960	0.3
6	231323	980	0.26666666666667
6	236593	1000	0.3
6	241712	1020	0
6	246960	1040	0.28571428571429
6	252337	1060	0.25
6	257648	1080	0.26666666666667
6	262936	1100	0.27777777777778
6	268299	1120	0.3
6	273610	1140	0.5
6	278868	1160	0.26666666666667
6	284180	1180	0.33333333333333
6	289512	1200	0.23333333333333
6	294822	1220	0.5
6	300199	1240	0.33333333333333
6	305517	1260	0.3
6	310846	1280	0.23809523809524
6	316128	1300	0.28571428571429
6	321434	1320	0.14285714285714
6	326773	1340	0.3
6	332247	1360	0.16666666666667
6	337522	1380	0.3
6	342861	1400	0.23809523809524
6	348161	1420	0.27777777777778
6	353409	1440	0.26666666666667
6	358767	1460	0.14285714285714
6	364104	1480	0.2
6	369277	1500	0.26666666666667
6	374681	1520	0.14285714285714
6	380028	1540	0.3
6	385332	1560	0.3
6	390673	1580	0.33333333333333
6	395932	1600	0.23809523809524
6	401099	1620	0
6	406441	1640	0.16666666666667
6	411886	1660	0.28571428571429
6	417290	1680	0.16666666666667
6	422699	1700	0.2
6	428026	1720	0.28571428571429
6	433367	1740	0.26666666666667
6	438653	1760	0.3
6	444040	1780	0.25
6	449326	1800	0.23809523809524
6	454158	1820	0.16666666666667
6	458452	1840	0.33333333333333
6	462151	1860	0.33333333333333
6	465502	1880	0.25
6	468381	1900	0
6	470860	1920	0.2
6	472931	1940	0
6	474476	1960	nan
6	475533	1980	nan
6	476095	2000	nan
7	34463	240	9.025641025641
7	39848	260	9.025
7	45193	280	8.975
7	50514	300	8.8536585365854
7	55799	320	8.9
7	61130	340	9.175
7	66481	360	8.975
7	71720	380	9.025641025641
7	76993	400	8.8717948717949
7	82308	420	8.8780487804878
7	87732	440	9.219512195122
7	92986	460	9
7	98115	480	8.95
7	103417	500	8.925
7	108790	520	9.1
7	113938	540	8.825
7	119261	560	9.2051282051282
7	124606	580	8.8
7	129858	600	9.2307692307692
7	135112	620	9
7	140573	640	9.35
7	145907	660	9.0731707317073
7	151189	680	9.075
7	156618	700	8.9512195121951
7	161994	720	9
7	167337	740	9
7	172672	760	9
7	178108	780	9.25
7	183485	800	9.05
7	188804	820	9.4210526315789
7	194158	840	9.2564102564103
7	199493	860	8.85
7	204830	880	8.9024390243902
7	210067	900	8.825
7	215413	920	9.0243902439024
7	220717	940	8.780487804878
7	225977	960	9.25
7	231323	980	9.025
7	236593	1000	9.3589743589744
7	241712	1020	8.825
7	246960	1040	8.9
7	252337	1060	8.8048780487805
7	257648	1080	8.8048780487805
7	262936	1100	9.0243902439024
7	268299	1120	8.95
7	273610	1140	9
7	278868	1160	8.7560975609756
7	284180	1180	9.075
7	289512	1200	9.1794871794872
7	294822	1220	9.05
7	300199	1240	9.125
7	305517	1260	9.025
7	310846	1280	8.6904761904762
7	316128	1300	8.780487804878
7	321434	1320	8.8048780487805
7	326773	1340	9.1951219512195
7	332247	1360	9.05
7	337522	1380	9.0243902439024
7	342861	1400	8.925
7	348161	1420	9.2631578947368
7	353409	1440	9.0769230769231
7	358767	1460	9.15
7	364104	1480	8.925
7	369277	1500	8.875
7	374681	1520	9.1025641025641
7	380028	1540	8.9268292682927
7	385332	1560	8.780487804878
7	390673	1580	8.95
7	395932	1600	9
7	401099	1620	8.825
7	406441	1640	8.7317073170732
7	411886	1660	9.075
7	417290	1680	9.175
7	422699	1700	8.8292682926829
7	428026	1720	8.8292682926829
7	433367	1740	9.1282051282051
7	438653	1760	9.075
7	444040	1780	8.8536585365854
7	449326	1800	8.8780487804878
7	454158	1820	8.7894736842105
7	458452	1840	8.3939393939394
7	462151	1860	8.4333333333333
7	465502	1880	8.2962962962963
7	468381	1900	8.125
7	470860	1920	8.0952380952381
7	472931	1940	7.8888888888889
7	474476	1960	7.6428571428571
7	475533	1980	6.4
7	476095	2000	5.5
8	34463	240	1.8706483464744
8	39848	260	1.7169964831289
8	45193	280	1.5768761719103
8	50514	300	1.5899838931536
8	55799	320	1.9454087962727
8	61130	340	1.852060529553
8	66481	360	2.2359246352145
8	71720	380	1.5974845273475
8	76993	400	1.5590058772295
8	82308	420	2.3151147050548
8	87732	440	1.4918477657246
8	92986	460	1.7320508075689
8	98115	480	1.5350603429215
8	103417	500	1.8451252476423
8	108790	520	2.1339742626953
8	113938	540	1.7958284996068
8	119261	560	1.592407762833
8	124606	580	1.5884196306634
8	129858	600	1.4227759830612
8	135112	620	1.7471781760735
8	140573	640	1.4060309658479
8	145907	660	1.8760362989884
8	151189	680	1.9133471812239
8	156618	700	1.6424253333439
8	161994	720	1.870828693387
8	167337	740	1.5
8	172672	760	1.320450583547
8	178108	780	1.7938641860377
8	183485	800	1.5182648665922
8	188804	820	1.3682021928057
8	194158	840	1.6970244658775
8	199493	860	1.9020906177017
8	204830	880	1.4799472633979
8	210067	900	1.5833670711655
8	215413	920	1.619996988856
8	220717	940	1.837283254182
8	225977	960	1.4978617237882
8	231323	980	1.440930966869
8	236593	1000	1.4416215191889
8	241712	1020	1.7814931795317
8	246960	1040	1.7945787306532
8	252337	1060	1.8332963780459
8	257648	1080	2.2385208530983
8	262936	1100	1.9298679343163
8	268299	1120	1.3387709633495
8	273610	1140	2.0647416048351
8	278868	1160	1.6549998157836
8	284180	1180	1.439150390388
8	289512	1200	1.6201331146057
8	294822	1220	1.484103804511
8	300199	1240	1.8562092609705
8	305517	1260	1.6715952767434
8	310846	1280	1.9316124344651
8	316128	1300	1.9938931155149
8	321434	1320	1.9393234928078
8	326773	1340	1.9521720236076
8	332247	1360	2.0872015370851
8	337522	1380	1.739077411705
8	342861	1400	1.9662211577098
8	348161	1420	1.408165579298
8	353409	1440	1.7378846092246
8	358767	1460	1.7327908421284
8	364104	1480	1.8998987827291
8	369277	1500	1.620185174602
8	374681	1520	1.7289313979095
8	380028	1540	1.7942999178292
8	385332	1560	1.9813151581961
8	390673	1580	1.8390354216413
8	395932	1600	1.8673991236957
8	401099	1620	1.7229595884958
8	406441	1640	1.5495868843647
8	411886	1660	1.7155024680684
8	417290	1680	1.9066348392538
8	422699	1700	1.6109382207954
8	428026	1720	2.2902231225842
8	433367	1740	1.6088486759414
8	438653	1760	1.6074745282506
8	444040	1780	1.7544368841562
8	449326	1800	1.503248514904
8	454158	1820	1.1427301290932
8	458452	1840	1.712808255822
8	462151	1860	1.590561239774
8	465502	1880	1.7934670937946
8	468381	1900	1.8953604681822
8	470860	1920	1.8948551898433
8	472931	1940	1.8751906221185
8	474476	1960	1.0082080720186
8	475533	1980	1.1737877907773
8	476095	2000	1.309307341416
9	34463	240	3.4993252361673
9	39848	260	2.9480769230769
9	45193	280	2.4865384615385
9	50514	300	2.5280487804878
9	55799	320	3.7846153846154
9	61130	340	3.4301282051282
9	66481	360	4.999358974359
9	71720	380	2.5519568151147
9	76993	400	2.4304993252362
9	82308	420	5.359756097561
9	87732	440	2.2256097560976
9	92986	460	3
9	98115	480	2.3564102564103
9	103417	500	3.4044871794872
9	108790	520	4.5538461538462
9	113938	540	3.225
9	119261	560	2.5357624831309
9	124606	580	2.5230769230769
9	129858	600	2.0242914979757
9	135112	620	3.0526315789474
9	140573	640	1.9769230769231
9	145907	660	3.519512195122
9	151189	680	3.6608974358974
9	156618	700	2.6975609756098
9	161994	720	3.5
9	167337	740	2.25
9	172672	760	1.7435897435897
9	178108	780	3.2179487179487
9	183485	800	2.3051282051282
9	188804	820	1.8719772403983
9	194158	840	2.8798920377868
9	199493	860	3.6179487179487
9	204830	880	2.190243902439
9	210067	900	2.5070512820513
9	215413	920	2.6243902439024
9	220717	940	3.3756097560976
9	225977	960	2.2435897435897
9	231323	980	2.0762820512821
9	236593	1000	2.0782726045884
9	241712	1020	3.1737179487179
9	246960	1040	3.2205128205128
9	252337	1060	3.3609756097561
9	257648	1080	5.0109756097561
9	262936	1100	3.7243902439024
9	268299	1120	1.7923076923077
9	273610	1140	4.2631578947368
9	278868	1160	2.7390243902439
9	284180	1180	2.0711538461538
9	289512	1200	2.6248313090418
9	294822	1220	2.2025641025641
9	300199	1240	3.4455128205128
9	305517	1260	2.7942307692308
9	310846	1280	3.7311265969803
9	316128	1300	3.9756097560976
9	321434	1320	3.7609756097561
9	326773	1340	3.8109756097561
9	332247	1360	4.3564102564103
9	337522	1380	3.0243902439024
9	342861	1400	3.8660256410256
9	348161	1420	1.9829302987198
9	353409	1440	3.0202429149798
9	358767	1460	3.0025641025641
9	364104	1480	3.6096153846154
9	369277	1500	2.625
9	374681	1520	2.9892037786775
9	380028	1540	3.219512195122
9	385332	1560	3.9256097560976
9	390673	1580	3.3820512820513
9	395932	1600	3.4871794871795
9	401099	1620	2.9685897435897
9	406441	1640	2.4012195121951
9	411886	1660	2.9429487179487
9	417290	1680	3.6352564102564
9	422699	1700	2.5951219512195
9	428026	1720	5.2451219512195
9	433367	1740	2.5883940620783
9	438653	1760	2.5839743589744
9	444040	1780	3.0780487804878
9	449326	1800	2.259756097561
9	454158	1820	1.3058321479374
9	458452	1840	2.9337121212121
9	462151	1860	2.5298850574713
9	465502	1880	3.2165242165242
9	468381	1900	3.5923913043478
9	470860	1920	3.5904761904762
9	472931	1940	3.516339869281
9	474476	1960	1.0164835164835
9	475533	1980	1.3777777777778
9	476095	2000	1.7142857142857
10	34463	240	96.69881541588
10	39848	260	385.52987112521
10	45193	280	286.43905348162
10	50514	300	363.47774740502
10	55799	320	378.35063515162
10	61130	340	244.46784132003
10	66481	360	378.88521538594
10	71720	380	190.67833914142
10	76993	400	283.14780048991
10	82308	420	278.25647036856
10	87732	440	487.63428960258
10	92986	460	241.60605919572
10	98115	480	281.75514728085
10	103417	500	281.73691926144
10	108790	520	232.89547117565
10	113938	540	281.88584656509
10	119261	560	240.82208623956
10	124606	580	375.223258389
10	129858	600	478.35101777183
10	135112	620	231.8069517373
10	140573	640	144.95213755806
10	145907	660	325.53463122521
10	151189	680	237.72233505894
10	156618	700	138.8659493311
10	161994	720	187.50165647052
10	167337	740	231.3321520147
10	172672	760	232.15078491442
10	178108	780	523.63708154022
10	183485	800	192.18113698967
10	188804	820	324.99919226949
10	194158	840	432.80022060382
10	199493	860	187.71105898566
10	204830	880	191.79269187401
10	210067	900	279.17401389723
10	215413	920	333.63770949676
10	220717	940	242.66676977525
10	225977	960	235.69024834535
10	231323	980	276.45940077639
10	236593	1000	240.05108188631
10	241712	1020	319.32688884224
10	246960	1040	333.05937530733
10	252337	1060	183.40429731141
10	257648	1080	287.42879457676
10	262936	1100	422.48223537609
10	268299	1120	235.99431581731
10	273610	1140	96.397009351013
10	278868	1160	281.09210099859
10	284180	1180	139.02052722588
10	289512	1200	459.51595663313
10	294822	1220	96.384724836116
10	300199	1240	137.13587535093
10	305517	1260	234.9503902398
10	310846	1280	336.09349402503
10	316128	1300	326.65021855084
10	321434	1320	334.17005344007
10	326773	1340	287.27980614732
10	332247	1360	288.91961439984
10	337522	1380	243.53358171889
10	342861	1400	324.71280441297
10	348161	1420	425.96113444534
10	353409	1440	286.95562784648
10	358767	1460	339.23404094986
10	364104	1480	238.97010287639
10	369277	1500	279.6256881287
10	374681	1520	325.97024327146
10	380028	1540	230.26097783288
10	385332	1560	275.49376645015
10	390673	1580	138.84246044916
10	395932	1600	329.0187860029
10	401099	1620	232.38058554018
10	406441	1640	284.1316766132
10	411886	1660	329.36558726048
10	417290	1680	274.86079542353
10	422699	1700	240.19155967621
10	428026	1720	340.54694545345
10	433367	1740	282.02555195737
10	438653	1760	284.09889174984
10	444040	1780	192.65346637824
10	449326	1800	329.43713685037
10	454158	1820	286.06129674833
10	458452	1840	140.54808009898
10	462151	1860	187.79801562036
10	465502	1880	194.69421175479
10	468381	1900	98.757465835793
10	470860	1920	241.29258326526
10	472931	1940	139.41760917982
10	474476	1960	0
10	475533	1980	0
10	476095	2000	46.393440195133
11	34463	240	48.34940770794
11	39848	260	48.191233890652
11	45193	280	47.739842246937
11	50514	300	45.434718425628
11	55799	320	47.293829393953
11	61130	340	48.893568264006
11	66481	360	47.360651923242
11	71720	380	47.669584785354
11	76993	400	47.191300081651
11	82308	420	46.37607839476
11	87732	440	48.763428960258
11	92986	460	48.321211839143
11	98115	480	46.959191213475
11	103417	500	46.95615321024
11	108790	520	46.579094235129
11	113938	540	46.980974427515
11	119261	560	48.164417247912
11	124606	580	46.902907298625
11	129858	600	47.835101777183
11	135112	620	46.361390347459
11	140573	640	48.317379186021
11	145907	660	46.504947317887
11	151189	680	47.544467011787
11	156618	700	46.288649777032
11	161994	720	46.87541411763
11	167337	740	46.26643040294
11	172672	760	46.430156982884
11	178108	780	47.603371049111
11	183485	800	48.045284247417
11	188804	820	46.428456038498
11	194158	840	48.088913400424
11	199493	860	46.927764746416
11	204830	880	47.948172968502
11	210067	900	46.529002316205
11	215413	920	47.662529928108
11	220717	940	48.533353955051
11	225977	960	47.138049669071
11	231323	980	46.076566796066
11	236593	1000	48.010216377262
11	241712	1020	45.618126977463
11	246960	1040	47.57991075819
11	252337	1060	45.851074327852
11	257648	1080	47.904799096127
11	262936	1100	46.942470597344
11	268299	1120	47.198863163461
11	273610	1140	48.198504675506
11	278868	1160	46.848683499765
11	284180	1180	46.340175741958
11	289512	1200	45.951595663313
11	294822	1220	48.192362418058
11	300199	1240	45.71195845031
11	305517	1260	46.99007804796
11	310846	1280	48.01335628929
11	316128	1300	46.664316935834
11	321434	1320	47.738579062867
11	326773	1340	47.87996769122
11	332247	1360	48.153269066639
11	337522	1380	48.706716343778
11	342861	1400	46.387543487567
11	348161	1420	47.329014938372
11	353409	1440	47.825937974414
11	358767	1460	48.46200584998
11	364104	1480	47.794020575277
11	369277	1500	46.604281354783
11	374681	1520	46.567177610208
11	380028	1540	46.052195566576
11	385332	1560	45.915627741691
11	390673	1580	46.28082014972
11	395932	1600	47.0026837147
11	401099	1620	46.476117108037
11	406441	1640	47.355279435533
11	411886	1660	47.052226751497
11	417290	1680	45.810132570588
11	422699	1700	48.038311935243
11	428026	1720	48.649563636207
11	433367	1740	47.004258659562
11	438653	1760	47.34981529164
11	444040	1780	48.16336659456
11	449326	1800	47.062448121482
11	454158	1820	47.676882791389
11	458452	1840	46.849360032992
11	462151	1860	46.94950390509
11	465502	1880	48.673552938699
11	468381	1900	49.378732917896
11	470860	1920	48.258516653051
11	472931	1940	46.472536393275
11	474476	1960	nan
11	475533	1980	nan
11	476095	2000	46.393440195133
12	34463	240	4.7193516930064
12	39848	260	2.3080717548169
12	45193	280	1.9228414133178
12	50514	300	2.2261376711514
12	55799	320	1.4073179592247
12	61130	340	3.1339856836618
12	66481	360	2.3828298927874
12	71720	380	1.9194353049966
12	76993	400	1.4501246789879
12	82308	420	0.60452187631201
12	87732	440	2.9869590120618
12	92986	460	2.8397968502008
12	98115	480	0.89674227325055
12	103417	500	1.7365347044657
12	108790	520	1.1189537716348
12	113938	540	0.91618828658211
12	119261	560	3.0391919119504
12	124606	580	1.3122378339378
12	129858	600	1.8261712697364
12	135112	620	1.116639318233
12	140573	640	1.0007722069039
12	145907	660	1.4882303148559
12	151189	680	1.3754661976167
12	156618	700	0.7551804336224
12	161994	720	2.0309772550056
12	167337	740	1.2468456562809
12	172672	760	2.1234489713158
12	178108	780	2.3550614278711
12	183485	800	3.0803279278348
12	188804	820	1.484685177249
12	194158	840	2.0799308015192
12	199493	860	1.9995653040573
12	204830	880	1.6626748910793
12	210067	900	2.0956278781935
12	215413	920	1.9887155093044
12	220717	940	1.7356034255626
12	225977	960	1.504788627696
12	231323	980	0.64542344959306
12	236593	1000	3.0203720550263
12	241712	1020	0.8167641519487
12	246960	1040	2.5167490302172
12	252337	1060	0.57744437254177
12	257648	1080	2.8442866084592
12	262936	1100	2.6067302879352
12	268299	1120	3.2917181111825
12	273610	1140	0.75051564665399
12	278868	1160	1.6607946674178
12	284180	1180	1.9325621972095
12	289512	1200	1.5614273757412
12	294822	1220	2.5545047039097
12	300199	1240	0.81647187673674
12	305517	1260	2.7384998162641
12	310846	1280	1.9608298137409
12	316128	1300	1.868300662572
12	321434	1320	2.7455878337733
12	326773	1340	2.1807686850729
12	332247	1360	3.3935121549493
12	337522	1380	3.5931620559679
12	342861	1400	2.0665892133738
12	348161	1420	2.9042831620606
12	353409	1440	3.8240143061873
12	358767	1460	2.880699651252
12	364104	1480	2.7544282187021
12	369277	1500	1.433847107721
12	374681	1520	1.5531161794252
12	380028	1540	1.7778985269104
12	385332	1560	0.84143652331464
12	390673	1580	2.5701492705457
12	395932	1600	2.1354150665771
12	401099	1620	2.0584511538164
12	406441	1640	3.4285170686041
12	411886	1660	1.4509727613699
12	417290	1680	2.9928966517298
12	422699	1700	2.5014277913656
12	428026	1720	2.437386918006
12	433367	1740	2.1055137008495
12	438653	1760	2.9660764015681
12	444040	1780	4.5201270956568
12	449326	1800	3.659816470644
12	454158	1820	1.6468605837188
12	458452	1840	2.3520161550149
12	462151	1860	1.9338391644041
12	465502	1880	2.2706082803033
12	468381	1900	0.72914145356917
12	470860	1920	2.0150996781889
12	472931	1940	0.76033118339483
12	474476	1960	nan
12	475533	1980	nan
12	476095	2000	nan
13	34463	240	22.272280402283
13	39848	260	5.3271952253834
13	45193	280	3.6973191007701
13	50514	300	4.9556889309196
13	55799	320	1.9805438383564
13	61130	340	9.8218662653974
13	66481	360	5.6778782979613
13	71720	380	3.6842318900672
13	76993	400	2.1028615846099
13	82308	420	0.36544669893979
13	87732	440	8.9219241397375