version 2
run statisticRVV-111-20150327-05:17:17-1400
attr c 6
attr configname statisticRVV
attr datetime 20150327-05:17:17
attr experiment statisticRVV
attr inifile omnetpp.ini
attr iterationvars "$sc=\"erlangen-low.launchd.xml\", $p=1/5, $c=6"
attr iterationvars2 "$sc=\"erlangen-low.launchd.xml\", $p=1/5, $c=6, $repetition=1"
attr measurement "$sc=\"erlangen-low.launchd.xml\", $p=1/5, $c=6"
attr network RSUExampleScenario
attr p 1/5
attr processid 1400
attr repetition 1
attr replication #1
attr resultdir results
attr runnumber 111
attr sc "\"erlangen-low.launchd.xml\""
attr seedset 111

vector 0  RSUExampleScenario.rsu[0].appl  Number_CH  ETV
vector 1  RSUExampleScenario.rsu[0].appl  Number_ON  ETV
vector 2  RSUExampleScenario.rsu[0].appl  Number_FN  ETV
vector 3  RSUExampleScenario.rsu[0].appl  Number_CH_Losts  ETV
vector 4  RSUExampleScenario.rsu[0].appl  Number_CH_Losts  ETV
vector 5  RSUExampleScenario.rsu[0].appl  Mean_Cluster_Size  ETV
vector 6  RSUExampleScenario.rsu[0].appl  StdDev_Cluster_Size  ETV
vector 7  RSUExampleScenario.rsu[0].appl  Variance_Cluster_Size  ETV
vector 8  RSUExampleScenario.rsu[0].appl  Mean_Neighbors  ETV
vector 9  RSUExampleScenario.rsu[0].appl  StdDev_Neighbors  ETV
vector 10  RSUExampleScenario.rsu[0].appl  Variance_Neighbors  ETV
vector 11  RSUExampleScenario.rsu[0].appl  Total_CH_Utility  ETV
vector 12  RSUExampleScenario.rsu[0].appl  Mean_CH_Utility  ETV
vector 13  RSUExampleScenario.rsu[0].appl  StdDev_CH_Utility  ETV
vector 14  RSUExampleScenario.rsu[0].appl  Variance_CH_Utility  ETV
vector 15  RSUExampleScenario.rsu[0].appl  Total_exp_CH_Utility  ETV
vector 16  RSUExampleScenario.rsu[0].appl  Mean_exp_CH_Utility  ETV
vector 17  RSUExampleScenario.rsu[0].appl  StdDev_exp_CH_Utility  ETV
vector 18  RSUExampleScenario.rsu[0].appl  Variance_exp_CH_Utility  ETV
vector 19  RSUExampleScenario.rsu[0].appl  Total_ON_Utility  ETV
vector 20  RSUExampleScenario.rsu[0].appl  Mean_ON_Utility  ETV
vector 21  RSUExampleScenario.rsu[0].appl  StdDev_ON_Utility  ETV
vector 22  RSUExampleScenario.rsu[0].appl  Variance_ON_Utility  ETV
vector 23  RSUExampleScenario.rsu[0].appl  Total_exp_ON_Utility  ETV
vector 24  RSUExampleScenario.rsu[0].appl  Mean_exp_ON_Utility  ETV
vector 25  RSUExampleScenario.rsu[0].appl  StdDev_exp_ON_Utility  ETV
vector 26  RSUExampleScenario.rsu[0].appl  Variance_exp_ON_Utility  ETV
0	34705	240	10
0	40056	260	9
0	45334	280	7
0	50712	300	5
0	56176	320	9
0	61524	340	5
0	66785	360	5
0	72013	380	6
0	77253	400	8
0	82499	420	7
0	87860	440	9
0	93245	460	5
0	98427	480	6
0	103686	500	9
0	108927	520	9
0	114175	540	6
0	119540	560	3
0	124891	580	7
0	130300	600	5
0	135648	620	7
0	140918	640	8
0	146335	660	7
0	151779	680	3
0	157128	700	7
0	162498	720	6
0	167751	740	9
0	173086	760	6
0	178393	780	7
0	183772	800	5
0	189068	820	7
0	194423	840	6
0	199737	860	9
0	204953	880	8
0	210227	900	7
0	215521	920	7
0	220838	940	6
0	226172	960	7
0	231528	980	10
0	236873	1000	8
0	242110	1020	9
0	247457	1040	8
0	252733	1060	11
0	258124	1080	8
0	263409	1100	9
0	268698	1120	10
0	274041	1140	7
0	279353	1160	10
0	284599	1180	8
0	289704	1200	8
0	295057	1220	8
0	300411	1240	10
0	305743	1260	5
0	311074	1280	9
0	316382	1300	8
0	321636	1320	6
0	326977	1340	6
0	332339	1360	4
0	337707	1380	10
0	342970	1400	9
0	348433	1420	4
0	353705	1440	9
0	359079	1460	11
0	364383	1480	5
0	369635	1500	3
0	374905	1520	5
0	380279	1540	7
0	385533	1560	7
0	390903	1580	9
0	396126	1600	6
0	401435	1620	5
0	406772	1640	8
0	412158	1660	8
0	417566	1680	5
0	422880	1700	6
0	428284	1720	8
0	433465	1740	5
0	438861	1760	6
0	444176	1780	7
0	449523	1800	5
0	454418	1820	7
0	458678	1840	5
0	462458	1860	5
0	465740	1880	4
0	468619	1900	3
0	471195	1920	4
0	473203	1940	4
0	474771	1960	4
0	475785	1980	2
0	476367	2000	0
1	34705	240	28
1	40056	260	28
1	45334	280	29
1	50712	300	23
1	56176	320	22
1	61524	340	16
1	66785	360	19
1	72013	380	24
1	77253	400	20
1	82499	420	21
1	87860	440	30
1	93245	460	19
1	98427	480	21
1	103686	500	25
1	108927	520	27
1	114175	540	18
1	119540	560	18
1	124891	580	21
1	130300	600	25
1	135648	620	25
1	140918	640	25
1	146335	660	26
1	151779	680	13
1	157128	700	22
1	162498	720	20
1	167751	740	27
1	173086	760	23
1	178393	780	21
1	183772	800	18
1	189068	820	19
1	194423	840	24
1	199737	860	31
1	204953	880	28
1	210227	900	27
1	215521	920	29
1	220838	940	26
1	226172	960	29
1	231528	980	27
1	236873	1000	24
1	242110	1020	27
1	247457	1040	27
1	252733	1060	24
1	258124	1080	27
1	263409	1100	26
1	268698	1120	24
1	274041	1140	27
1	279353	1160	26
1	284599	1180	27
1	289704	1200	31
1	295057	1220	23
1	300411	1240	28
1	305743	1260	21
1	311074	1280	29
1	316382	1300	31
1	321636	1320	20
1	326977	1340	24
1	332339	1360	20
1	337707	1380	29
1	342970	1400	29
1	348433	1420	19
1	353705	1440	26
1	359079	1460	25
1	364383	1480	21
1	369635	1500	16
1	374905	1520	25
1	380279	1540	27
1	385533	1560	25
1	390903	1580	26
1	396126	1600	20
1	401435	1620	16
1	406772	1640	30
1	412158	1660	23
1	417566	1680	17
1	422880	1700	14
1	428284	1720	30
1	433465	1740	16
1	438861	1760	25
1	444176	1780	28
1	449523	1800	21
1	454418	1820	26
1	458678	1840	19
1	462458	1860	22
1	465740	1880	9
1	468619	1900	16
1	471195	1920	14
1	473203	1940	13
1	474771	1960	8
1	475785	1980	7
1	476367	2000	0
2	34705	240	1
2	40056	260	3
2	45334	280	4
2	50712	300	13
2	56176	320	10
2	61524	340	19
2	66785	360	16
2	72013	380	10
2	77253	400	13
2	82499	420	11
2	87860	440	1
2	93245	460	16
2	98427	480	12
2	103686	500	6
2	108927	520	4
2	114175	540	17
2	119540	560	19
2	124891	580	12
2	130300	600	10
2	135648	620	8
2	140918	640	7
2	146335	660	8
2	151779	680	26
2	157128	700	11
2	162498	720	14
2	167751	740	5
2	173086	760	11
2	178393	780	13
2	183772	800	17
2	189068	820	13
2	194423	840	10
2	199737	860	1
2	204953	880	4
2	210227	900	6
2	215521	920	5
2	220838	940	8
2	226172	960	5
2	231528	980	4
2	236873	1000	8
2	242110	1020	4
2	247457	1040	5
2	252733	1060	5
2	258124	1080	6
2	263409	1100	6
2	268698	1120	6
2	274041	1140	6
2	279353	1160	6
2	284599	1180	6
2	289704	1200	1
2	295057	1220	9
2	300411	1240	2
2	305743	1260	14
2	311074	1280	4
2	316382	1300	1
2	321636	1320	15
2	326977	1340	11
2	332339	1360	17
2	337707	1380	2
2	342970	1400	3
2	348433	1420	18
2	353705	1440	5
2	359079	1460	5
2	364383	1480	14
2	369635	1500	21
2	374905	1520	11
2	380279	1540	7
2	385533	1560	8
2	390903	1580	5
2	396126	1600	14
2	401435	1620	19
2	406772	1640	2
2	412158	1660	10
2	417566	1680	19
2	422880	1700	20
2	428284	1720	3
2	433465	1740	18
2	438861	1760	11
2	444176	1780	5
2	449523	1800	14
2	454418	1820	4
2	458678	1840	10
2	462458	1860	4
2	465740	1880	15
2	468619	1900	5
2	471195	1920	3
2	473203	1940	0
2	474771	1960	1
2	475785	1980	1
2	476367	2000	8
3	34705	240	0
3	40056	260	1
3	45334	280	0
3	50712	300	0
3	56176	320	0
3	61524	340	1
3	66785	360	0
3	72013	380	0
3	77253	400	2
3	82499	420	0
3	87860	440	0
3	93245	460	3
3	98427	480	0
3	103686	500	1
3	108927	520	1
3	114175	540	2
3	119540	560	0
3	124891	580	1
3	130300	600	1
3	135648	620	0
3	140918	640	2
3	146335	660	1
3	151779	680	0
3	157128	700	0
3	162498	720	2
3	167751	740	0
3	173086	760	0
3	178393	780	0
3	183772	800	1
3	189068	820	1
3	194423	840	0
3	199737	860	0
3	204953	880	1
3	210227	900	1
3	215521	920	1
3	220838	940	0
3	226172	960	0
3	231528	980	2
3	236873	1000	0
3	242110	1020	2
3	247457	1040	2
3	252733	1060	2
3	258124	1080	0
3	263409	1100	2
3	268698	1120	1
3	274041	1140	1
3	279353	1160	1
3	284599	1180	0
3	289704	1200	0
3	295057	1220	0
3	300411	1240	1
3	305743	1260	1
3	311074	1280	1
3	316382	1300	0
3	321636	1320	2
3	326977	1340	0
3	332339	1360	1
3	337707	1380	0
3	342970	1400	1
3	348433	1420	0
3	353705	1440	1
3	359079	1460	1
3	364383	1480	1
3	369635	1500	0
3	374905	1520	1
3	380279	1540	1
3	385533	1560	1
3	390903	1580	0
3	396126	1600	1
3	401435	1620	0
3	406772	1640	0
3	412158	1660	2
3	417566	1680	2
3	422880	1700	4
3	428284	1720	1
3	433465	1740	1
3	438861	1760	1
3	444176	1780	0
3	449523	1800	0
3	454418	1820	0
3	458678	1840	0
3	462458	1860	0
3	465740	1880	0
3	468619	1900	0
3	471195	1920	2
3	473203	1940	0
3	474771	1960	0
3	475785	1980	0
3	476367	2000	0
4	34705	240	1
4	40056	260	2
4	45334	280	4
4	50712	300	13
4	56176	320	9
4	61524	340	18
4	66785	360	16
4	72013	380	10
4	77253	400	11
4	82499	420	11
4	87860	440	1
4	93245	460	13
4	98427	480	12
4	103686	500	5
4	108927	520	3
4	114175	540	14
4	119540	560	19
4	124891	580	10
4	130300	600	9
4	135648	620	8
4	140918	640	5
4	146335	660	7
4	151779	680	26
4	157128	700	10
4	162498	720	11
4	167751	740	5
4	173086	760	11
4	178393	780	13
4	183772	800	16
4	189068	820	12
4	194423	840	10
4	199737	860	1
4	204953	880	2
4	210227	900	5
4	215521	920	4
4	220838	940	8
4	226172	960	5
4	231528	980	2
4	236873	1000	7
4	242110	1020	2
4	247457	1040	3
4	252733	1060	3
4	258124	1080	6
4	263409	1100	4
4	268698	1120	4
4	274041	1140	5
4	279353	1160	4
4	284599	1180	6
4	289704	1200	1
4	295057	1220	9
4	300411	1240	1
4	305743	1260	13
4	311074	1280	3
4	316382	1300	1
4	321636	1320	13
4	326977	1340	11
4	332339	1360	16
4	337707	1380	2
4	342970	1400	2
4	348433	1420	17
4	353705	1440	4
4	359079	1460	4
4	364383	1480	13
4	369635	1500	21
4	374905	1520	10
4	380279	1540	6
4	385533	1560	7
4	390903	1580	4
4	396126	1600	13
4	401435	1620	19
4	406772	1640	2
4	412158	1660	8
4	417566	1680	17
4	422880	1700	15
4	428284	1720	2
4	433465	1740	17
4	438861	1760	10
4	444176	1780	4
4	449523	1800	14
4	454418	1820	4
4	458678	1840	10
4	462458	1860	4
4	465740	1880	15
4	468619	1900	5
4	471195	1920	1
4	473203	1940	0
4	474771	1960	1
4	475785	1980	1
4	476367	2000	8
5	34705	240	2.8
5	40056	260	3.1111111111111
5	45334	280	4.1428571428571
5	50712	300	4.6
5	56176	320	2.4444444444444
5	61524	340	3.2
5	66785	360	3.8
5	72013	380	4
5	77253	400	2.5
5	82499	420	3
5	87860	440	3.3333333333333
5	93245	460	3.8
5	98427	480	3.5
5	103686	500	2.7777777777778
5	108927	520	3
5	114175	540	3
5	119540	560	6
5	124891	580	3
5	130300	600	5
5	135648	620	3.5714285714286
5	140918	640	3.125
5	146335	660	3.7142857142857
5	151779	680	4.3333333333333
5	157128	700	3.1428571428571
5	162498	720	3.3333333333333
5	167751	740	3
5	173086	760	3.8333333333333
5	178393	780	3
5	183772	800	3.6
5	189068	820	2.7142857142857
5	194423	840	4
5	199737	860	3.4444444444444
5	204953	880	3.5
5	210227	900	3.8571428571429
5	215521	920	4.1428571428571
5	220838	940	4.3333333333333
5	226172	960	4.1428571428571
5	231528	980	2.7
5	236873	1000	3
5	242110	1020	3
5	247457	1040	3.375
5	252733	1060	2.1818181818182
5	258124	1080	3.375
5	263409	1100	2.8888888888889
5	268698	1120	2.4
5	274041	1140	3.8571428571429
5	279353	1160	2.6
5	284599	1180	3.375
5	289704	1200	3.875
5	295057	1220	2.875
5	300411	1240	2.8
5	305743	1260	4.2
5	311074	1280	3.2222222222222
5	316382	1300	3.875
5	321636	1320	3.3333333333333
5	326977	1340	4
5	332339	1360	5
5	337707	1380	2.9
5	342970	1400	3.2222222222222
5	348433	1420	4.75
5	353705	1440	2.8888888888889
5	359079	1460	2.2727272727273
5	364383	1480	4.2
5	369635	1500	5.3333333333333
5	374905	1520	5
5	380279	1540	3.8571428571429
5	385533	1560	3.5714285714286
5	390903	1580	2.8888888888889
5	396126	1600	3.3333333333333
5	401435	1620	3.2
5	406772	1640	3.75
5	412158	1660	2.875
5	417566	1680	3.4
5	422880	1700	2.3333333333333
5	428284	1720	3.75
5	433465	1740	3.2
5	438861	1760	4.1666666666667
5	444176	1780	4
5	449523	1800	4.2
5	454418	1820	3.7142857142857
5	458678	1840	3.8
5	462458	1860	4.4
5	465740	1880	2.25
5	468619	1900	5.3333333333333
5	471195	1920	3.5
5	473203	1940	3.25
5	474771	1960	2
5	475785	1980	3.5
5	476367	2000	nan
6	34705	240	1.3984117975602
6	40056	260	1.4529663145136
6	45334	280	1.3451854182691
6	50712	300	2.1908902300207
6	56176	320	1.5092308563562
6	61524	340	2.1679483388679
6	66785	360	1.7888543819998
6	72013	380	1.897366596101
6	77253	400	1.1952286093344
6	82499	420	2.1602468994693
6	87860	440	1.5
6	93245	460	1.0954451150103
6	98427	480	2.0736441353328
6	103686	500	1.4813657362193
6	108927	520	1.5
6	114175	540	1.6733200530682
6	119540	560	0
6	124891	580	1.8257418583506
6	130300	600	0
6	135648	620	1.2724180205607
6	140918	640	1.2464234547582
6	146335	660	1.6035674514745
6	151779	680	2.0816659994661
6	157128	700	1.6761634196951
6	162498	720	1.6329931618555
6	167751	740	1.5811388300842
6	173086	760	1.471960144388
6	178393	780	1.9148542155127
6	183772	800	1.8165902124585
6	189068	820	1.6035674514745
6	194423	840	1.4142135623731
6	199737	860	1.8104634152
6	204953	880	2.2038926600774
6	210227	900	1.9518001458971
6	215521	920	1.3451854182691
6	220838	940	2.2509257354846
6	226172	960	1.4638501094228
6	231528	980	1.3374935098493
6	236873	1000	1.4142135623731
6	242110	1020	1.1180339887499
6	247457	1040	1.7677669529664
6	252733	1060	1.3280197150782
6	258124	1080	1.3024701806293
6	263409	1100	1.6158932858054
6	268698	1120	1.3498971154211
6	274041	1140	1.9518001458971
6	279353	1160	1.5776212754932
6	284599	1180	1.1877349391654
6	289704	1200	1.6420805617961
6	295057	1220	1.4577379737113
6	300411	1240	1.1352924243951
6	305743	1260	1.4832396974191
6	311074	1280	1.4813657362193
6	316382	1300	1.1259916264596
6	321636	1320	1.5055453054182
6	326977	1340	1.7888543819998
6	332339	1360	1.4142135623731
6	337707	1380	0.99442892601175
6	342970	1400	1.7873008824606
6	348433	1420	0.5
6	353705	1440	1.4529663145136
6	359079	1460	1.4893561757289
6	364383	1480	1.9235384061671
6	369635	1500	0.57735026918963
6	374905	1520	0.70710678118655
6	380279	1540	1.3451854182691
6	385533	1560	2.3704530408864
6	390903	1580	1.6158932858054
6	396126	1600	2.2509257354846
6	401435	1620	1.3038404810405
6	406772	1640	1.8322507626258
6	412158	1660	1.6420805617961
6	417566	1680	1.8165902124585
6	422880	1700	1.7511900715418
6	428284	1720	1.5811388300842
6	433465	1740	2.1679483388679
6	438861	1760	1.3291601358251
6	444176	1780	1.4142135623731
6	449523	1800	2.0493901531919
6	454418	1820	1.7994708216849
6	458678	1840	1.6431676725155
6	462458	1860	1.8165902124585
6	465740	1880	1.2583057392118
6	468619	1900	0.57735026918963
6	471195	1920	1.7320508075689
6	473203	1940	0.95742710775634
6	474771	1960	1.1547005383793
6	475785	1980	3.5355339059327
6	476367	2000	nan
7	34705	240	1.9555555555556
7	40056	260	2.1111111111111
7	45334	280	1.8095238095238
7	50712	300	4.8
7	56176	320	2.2777777777778
7	61524	340	4.7
7	66785	360	3.2
7	72013	380	3.6
7	77253	400	1.4285714285714
7	82499	420	4.6666666666667
7	87860	440	2.25
7	93245	460	1.2
7	98427	480	4.3
7	103686	500	2.1944444444444
7	108927	520	2.25
7	114175	540	2.8
7	119540	560	0
7	124891	580	3.3333333333333
7	130300	600	0
7	135648	620	1.6190476190476
7	140918	640	1.5535714285714
7	146335	660	2.5714285714286
7	151779	680	4.3333333333333
7	157128	700	2.8095238095238
7	162498	720	2.6666666666667
7	167751	740	2.5
7	173086	760	2.1666666666667
7	178393	780	3.6666666666667
7	183772	800	3.3
7	189068	820	2.5714285714286
7	194423	840	2
7	199737	860	3.2777777777778
7	204953	880	4.8571428571429
7	210227	900	3.8095238095238
7	215521	920	1.8095238095238
7	220838	940	5.0666666666667
7	226172	960	2.1428571428571
7	231528	980	1.7888888888889
7	236873	1000	2
7	242110	1020	1.25
7	247457	1040	3.125
7	252733	1060	1.7636363636364
7	258124	1080	1.6964285714286
7	263409	1100	2.6111111111111
7	268698	1120	1.8222222222222
7	274041	1140	3.8095238095238
7	279353	1160	2.4888888888889
7	284599	1180	1.4107142857143
7	289704	1200	2.6964285714286
7	295057	1220	2.125
7	300411	1240	1.2888888888889
7	305743	1260	2.2
7	311074	1280	2.1944444444444
7	316382	1300	1.2678571428571
7	321636	1320	2.2666666666667
7	326977	1340	3.2
7	332339	1360	2
7	337707	1380	0.98888888888889
7	342970	1400	3.1944444444444
7	348433	1420	0.25
7	353705	1440	2.1111111111111
7	359079	1460	2.2181818181818
7	364383	1480	3.7
7	369635	1500	0.33333333333333
7	374905	1520	0.5
7	380279	1540	1.8095238095238
7	385533	1560	5.6190476190476
7	390903	1580	2.6111111111111
7	396126	1600	5.0666666666667
7	401435	1620	1.7
7	406772	1640	3.3571428571429
7	412158	1660	2.6964285714286
7	417566	1680	3.3
7	422880	1700	3.0666666666667
7	428284	1720	2.5
7	433465	1740	4.7
7	438861	1760	1.7666666666667
7	444176	1780	2
7	449523	1800	4.2
7	454418	1820	3.2380952380952
7	458678	1840	2.7
7	462458	1860	3.3
7	465740	1880	1.5833333333333
7	468619	1900	0.33333333333333
7	471195	1920	3
7	473203	1940	0.91666666666667
7	474771	1960	1.3333333333333
7	475785	1980	12.5
7	476367	2000	nan
8	34705	240	9.2820512820513
8	40056	260	9.075
8	45334	280	8.95
8	50712	300	9.0975609756098
8	56176	320	9.175
8	61524	340	9.1282051282051
8	66785	360	8.725
8	72013	380	8.675
8	77253	400	8.7073170731707
8	82499	420	8.9230769230769
8	87860	440	9.15
8	93245	460	8.875
8	98427	480	9.0512820512821
8	103686	500	8.65
8	108927	520	9
8	114175	540	9.05
8	119540	560	9.3
8	124891	580	9.2820512820513
8	130300	600	9.075
8	135648	620	9.15
8	140918	640	8.925
8	146335	660	9.0487804878049
8	151779	680	9
8	157128	700	9.3076923076923
8	162498	720	9.1025641025641
8	167751	740	9.0243902439024
8	173086	760	8.775
8	178393	780	9
8	183772	800	9.3
8	189068	820	9.2051282051282
8	194423	840	9.3
8	199737	860	9
8	204953	880	9
8	210227	900	9.05
8	215521	920	9.1219512195122
8	220838	940	9.025
8	226172	960	8.8292682926829
8	231528	980	8.8536585365854
8	236873	1000	9.1282051282051
8	242110	1020	8.95
8	247457	1040	8.9
8	252733	1060	8.95
8	258124	1080	9.0487804878049
8	263409	1100	8.7317073170732
8	268698	1120	9.2307692307692
8	274041	1140	8.775
8	279353	1160	8.7317073170732
8	284599	1180	8.7073170731707
8	289704	1200	9.05
8	295057	1220	9.1
8	300411	1240	8.975
8	305743	1260	8.95
8	311074	1280	8.7142857142857
8	316382	1300	9
8	321636	1320	8.7073170731707
8	326977	1340	9
8	332339	1360	8.8048780487805
8	337707	1380	8.8292682926829
8	342970	1400	8.9512195121951
8	348433	1420	9.2
8	353705	1440	8.8
8	359079	1460	9.219512195122
8	364383	1480	9.075
8	369635	1500	8.85
8	374905	1520	9.0243902439024
8	380279	1540	8.925
8	385533	1560	8.95
8	390903	1580	9.1794871794872
8	396126	1600	8.95
8	401435	1620	9
8	406772	1640	9.225
8	412158	1660	8.9756097560976
8	417566	1680	9.1463414634146
8	422880	1700	9.1794871794872
8	428284	1720	8.9756097560976
8	433465	1740	8.7948717948718
8	438861	1760	8.7857142857143
8	444176	1780	9.3846153846154
8	449523	1800	9.1
8	454418	1820	8.7837837837838
8	458678	1840	8.2647058823529
8	462458	1860	8.2258064516129
8	465740	1880	7.8214285714286
8	468619	1900	8.0416666666667
8	471195	1920	8.0952380952381
8	473203	1940	8
8	474771	1960	7.0769230769231
8	475785	1980	6.3
8	476367	2000	5.5
9	34705	240	1.7910408316001
9	40056	260	2.1648414402765
9	45334	280	1.6322078801741
9	50712	300	1.7861253882186
9	56176	320	1.8381637995147
9	61524	340	2.3076473229983
9	66785	360	1.9869768300302
9	72013	380	1.5256356388614
9	77253	400	1.749912889818
9	82499	420	1.8120156759026
9	87860	440	1.6259119728908
9	93245	460	1.8836339673824
9	98427	480	1.7160038944367
9	103686	500	1.9288630901422
9	108927	520	1.6641005886757
9	114175	540	1.6322078801741
9	119540	560	1.6361305195256
9	124891	580	1.450022104164
9	130300	600	1.8998987827291
9	135648	620	1.6878145480822
9	140918	640	1.5588868480837
9	146335	660	1.8967237478372
9	151779	680	1.9630737471082
9	157128	700	1.3407351901858
9	162498	720	1.3532586751377
9	167751	740	1.8095276300467
9	173086	760	2.5468683636063
9	178393	780	2.1213203435596
9	183772	800	1.2649110640674
9	189068	820	1.734775689724
9	194423	840	1.5055453054182
9	199737	860	1.9364916731037
9	204953	880	2.0390916450327
9	210227	900	1.5350603429215
9	215521	920	1.6910813397235
9	220838	940	1.4048907248316
9	226172	960	1.7874904059098
9	231528	980	1.7257024020635
9	236873	1000	1.2392588442819
9	242110	1020	1.7238894604338
9	247457	1040	1.8783517051407
9	252733	1060	1.5681117176319
9	258124	1080	1.8567608827229
9	263409	1100	1.7032966600669
9	268698	1120	1.4949307053389
9	274041	1140	1.954449230569
9	279353	1160	1.5004064489981
9	284599	1180	1.5205903859854
9	289704	1200	1.678674690924
9	295057	1220	1.836942833721
9	300411	1240	1.7466084351225
9	305743	1260	1.6164221332376
9	311074	1280	2.1217309349394
9	316382	1300	2.0380986614603
9	321636	1320	2.112390854447
9	326977	1340	1.9104973174543
9	332339	1360	1.8603697508173
9	337707	1380	1.6416826585
9	342970	1400	1.9487331719889
9	348433	1420	1.8425177868536
9	353705	1440	1.6671794083083
9	359079	1460	2.0063922238928
9	364383	1480	1.4568582283242
9	369635	1500	1.6725537053966
9	374905	1520	1.619996988856
9	380279	1540	1.4568582283242
9	385533	1560	1.484103804511
9	390903	1580	1.2538738892307
9	396126	1600	1.6478424121816
9	401435	1620	1.4142135623731
9	406772	1640	1.7169964831289
9	412158	1660	2.0060882941442
9	417566	1680	1.5741819400844
9	422880	1700	1.6038078844096
9	428284	1720	1.7246420625459
9	433465	1740	1.2810252304407
9	438861	1760	2.0781759624754
9	444176	1780	1.6641005886757
9	449523	1800	1.6763819404469
9	454418	1820	1.272249432548
9	458678	1840	1.7461442116398
9	462458	1860	1.8204336007182
9	465740	1880	1.9061998540546
9	468619	1900	1.8528278426483
9	471195	1920	1.6094956323259
9	473203	1940	1.4577379737113
9	474771	1960	1.5525000516124
9	475785	1980	1.0593499054714
9	476367	2000	1.1952286093344
10	34705	240	3.2078272604588
10	40056	260	4.6865384615385
10	45334	280	2.6641025641026
10	50712	300	3.190243902439
10	56176	320	3.3788461538462
10	61524	340	5.3252361673414
10	66785	360	3.9480769230769
10	72013	380	2.3275641025641
10	77253	400	3.0621951219512
10	82499	420	3.2834008097166
10	87860	440	2.6435897435897
10	93245	460	3.5480769230769
10	98427	480	2.944669365722
10	103686	500	3.7205128205128
10	108927	520	2.7692307692308
10	114175	540	2.6641025641026
10	119540	560	2.6769230769231
10	124891	580	2.1025641025641
10	130300	600	3.6096153846154
10	135648	620	2.8487179487179
10	140918	640	2.4301282051282
10	146335	660	3.5975609756098
10	151779	680	3.8536585365854
10	157128	700	1.7975708502024
10	162498	720	1.8313090418354
10	167751	740	3.2743902439024
10	173086	760	6.4865384615385
10	178393	780	4.5
10	183772	800	1.6
10	189068	820	3.0094466936572
10	194423	840	2.2666666666667
10	199737	860	3.75
10	204953	880	4.1578947368421
10	210227	900	2.3564102564103
10	215521	920	2.859756097561
10	220838	940	1.9737179487179
10	226172	960	3.1951219512195
10	231528	980	2.9780487804878
10	236873	1000	1.5357624831309
10	242110	1020	2.9717948717949
10	247457	1040	3.5282051282051
10	252733	1060	2.4589743589744
10	258124	1080	3.4475609756098
10	263409	1100	2.9012195121951
10	268698	1120	2.2348178137652
10	274041	1140	3.8198717948718
10	279353	1160	2.2512195121951
10	284599	1180	2.3121951219512
10	289704	1200	2.8179487179487
10	295057	1220	3.374358974359
10	300411	1240	3.050641025641
10	305743	1260	2.6128205128205
10	311074	1280	4.5017421602787
10	316382	1300	4.1538461538462
10	321636	1320	4.4621951219512
10	326977	1340	3.65
10	332339	1360	3.4609756097561
10	337707	1380	2.6951219512195
10	342970	1400	3.7975609756098
10	348433	1420	3.3948717948718
10	353705	1440	2.7794871794872
10	359079	1460	4.0256097560976
10	364383	1480	2.1224358974359
10	369635	1500	2.7974358974359
10	374905	1520	2.6243902439024
10	380279	1540	2.1224358974359
10	385533	1560	2.2025641025641
10	390903	1580	1.5721997300945
10	396126	1600	2.7153846153846
10	401435	1620	2
10	406772	1640	2.9480769230769
10	412158	1660	4.0243902439024
10	417566	1680	2.4780487804878
10	422880	1700	2.5721997300945
10	428284	1720	2.9743902439024
10	433465	1740	1.6410256410256
10	438861	1760	4.3188153310105
10	444176	1780	2.7692307692308
10	449523	1800	2.8102564102564
10	454418	1820	1.6186186186186
10	458678	1840	3.0490196078431
10	462458	1860	3.3139784946237
10	465740	1880	3.6335978835979
10	468619	1900	3.4329710144928
10	471195	1920	2.5904761904762
10	473203	1940	2.125
10	474771	1960	2.4102564102564
10	475785	1980	1.1222222222222
10	476367	2000	1.4285714285714
11	34705	240	472.95019038961
11	40056	260	414.37602337453
11	45334	280	318.19730478132
11	50712	300	235.41904655796
11	56176	320	414.77669309654
11	61524	340	229.14377795172
11	66785	360	232.72613712828
11	72013	380	271.85654057805
11	77253	400	365.74178251798
11	82499	420	318.3762608033
11	87860	440	422.6549884349
11	93245	460	229.84404870766
11	98427	480	271.25156401394
11	103686	500	414.0621819597
11	108927	520	417.73478650159
11	114175	540	275.36844877559
11	119540	560	137.89014855227
11	124891	580	321.49233201661
11	130300	600	229.69157400388
11	135648	620	321.19152875203
11	140918	640	363.47239985412
11	146335	660	324.42167903215
11	151779	680	141.24505359533
11	157128	700	323.79122582119
11	162498	720	276.69025564505
11	167751	740	414.24995751318
11	173086	760	276.12197060322
11	178393	780	331.96353492704
11	183772	800	224.77625351006
11	189068	820	325.19646977919
11	194423	840	278.3287866722
11	199737	860	419.67745799125
11	204953	880	368.26616815888
11	210227	900	319.92120638138
11	215521	920	318.49978072754
11	220838	940	273.03579060983
11	226172	960	322.71825958771
11	231528	980	464.29720425603
11	236873	1000	359.83518400076
11	242110	1020	416.20735250549
11	247457	1040	365.68793275926
11	252733	1060	509.63185227739
11	258124	1080	366.76521602072
11	263409	1100	416.30784882864
11	268698	1120	459.69974593202
11	274041	1140	326.53815755149
11	279353	1160	467.71657217654
11	284599	1180	367.15243155015
11	289704	1200	365.61599980127
11	295057	1220	367.30464659073
11	300411	1240	463.57351265037
11	305743	1260	226.38797504087
11	311074	1280	414.01563625321
11	316382	1300	371.0112252206
11	321636	1320	273.67104921193
11	326977	1340	274.55702562522
11	332339	1360	182.55677341517
11	337707	1380	458.17581067902
11	342970	1400	420.19966911619
11	348433	1420	180.95607083746
11	353705	1440	415.78118857474
11	359079	1460	505.24420088071
11	364383	1480	224.60408143039
11	369635	1500	136.38290525653
11	374905	1520	224.65527078816
11	380279	1540	319.72615025223
11	385533	1560	327.2748020782
11	390903	1580	413.20596050945
11	396126	1600	276.14127113211
11	401435	1620	232.98055906805
11	406772	1640	364.14070279471
11	412158	1660	371.00071824918
11	417566	1680	232.11834684715
11	422880	1700	273.39461985055
11	428284	1720	364.75500622282
11	433465	1740	223.23173910875
11	438861	1760	273.61043639262
11	444176	1780	317.7004753957
11	449523	1800	233.29116868232
11	454418	1820	321.31057508068
11	458678	1840	227.92103129939
11	462458	1860	228.85012719083
11	465740	1880	188.46738432821
11	468619	1900	137.58893740306
11	471195	1920	182.79536608003
11	473203	1940	188.3315828269
11	474771	1960	190.2405622975
11	475785	1980	92.956555100975
11	476367	2000	0
12	34705	240	47.295019038961
12	40056	260	46.041780374948
12	45334	280	45.456757825903
12	50712	300	47.083809311592
12	56176	320	46.086299232949
12	61524	340	45.828755590344
12	66785	360	46.545227425656
12	72013	380	45.309423429675
12	77253	400	45.717722814748
12	82499	420	45.4823229719
12	87860	440	46.961665381656
12	93245	460	45.968809741533
12	98427	480	45.208594002323
12	103686	500	46.006909106633
12	108927	520	46.414976277955
12	114175	540	45.894741462598
12	119540	560	45.963382850757
12	124891	580	45.927476002373
12	130300	600	45.938314800775
12	135648	620	45.884504107434
12	140918	640	45.434049981766
12	146335	660	46.34595414745
12	151779	680	47.081684531778
12	157128	700	46.255889403027
12	162498	720	46.115042607509
12	167751	740	46.02777305702
12	173086	760	46.02032843387
12	178393	780	47.423362132434
12	183772	800	44.955250702013
12	189068	820	46.456638539884
12	194423	840	46.388131112034
12	199737	860	46.630828665694
12	204953	880	46.03327101986
12	210227	900	45.703029483055
12	215521	920	45.499968675363
12	220838	940	45.505965101639
12	226172	960	46.10260851253
12	231528	980	46.429720425603
12	236873	1000	44.979398000095
12	242110	1020	46.245261389499
12	247457	1040	45.710991594907
12	252733	1060	46.330168388853
12	258124	1080	45.84565200259
12	263409	1100	46.256427647626
12	268698	1120	45.969974593202
12	274041	1140	46.648308221641
12	279353	1160	46.771657217654
12	284599	1180	45.894053943769
12	289704	1200	45.701999975158
12	295057	1220	45.913080823841
12	300411	1240	46.357351265037
12	305743	1260	45.277595008174
12	311074	1280	46.001737361467
12	316382	1300	46.376403152575
12	321636	1320	45.611841535321
12	326977	1340	45.75950427087
12	332339	1360	45.639193353792
12	337707	1380	45.817581067902
12	342970	1400	46.688852124021
12	348433	1420	45.239017709365
12	353705	1440	46.197909841638
12	359079	1460	45.931290989156
12	364383	1480	44.920816286079
12	369635	1500	45.460968418843
12	374905	1520	44.931054157632
12	380279	1540	45.675164321747
12	385533	1560	46.753543154028
12	390903	1580	45.911773389939
12	396126	1600	46.023545188684
12	401435	1620	46.596111813609
12	406772	1640	45.517587849339
12	412158	1660	46.375089781147
12	417566	1680	46.423669369429
12	422880	1700	45.565769975092
12	428284	1720	45.594375777852
12	433465	1740	44.646347821749
12	438861	1760	45.60173939877
12	444176	1780	45.385782199385
12	449523	1800	46.658233736465
12	454418	1820	45.901510725812
12	458678	1840	45.584206259877
12	462458	1860	45.770025438166
12	465740	1880	47.116846082053
12	468619	1900	45.862979134353
12	471195	1920	45.698841520007
12	473203	1940	47.082895706724
12	474771	1960	47.560140574374
12	475785	1980	46.478277550487
12	476367	2000	nan
13	34705	240	2.6994412988412
13	40056	260	1.3278648800316
13	45334	280	0.62210037969362
13	50712	300	3.4503094015213
13	56176	320	0.85530659966364
13	61524	340	1.3005275254374
13	66785	360	2.1699185999149
13	72013	380	0.83600916490371
13	77253	400	1.1968895904839
13	82499	420	1.3655654834808
13	87860	440	1.6273266253059
13	93245	460	1.8992673805046
13	98427	480	0.7066526088597
13	103686	500	2.0505998821399
13	108927	520	1.1604402630862
13	114175	540	1.7259328071301
13	119540	560	0.089727993013633
13	124891	580	2.21006980993
13	130300	600	0.46072758113541
13	135648	620	1.4689758410831
13	140918	640	1.1790700657381
13	146335	660	1.7788962518524
13	151779	680	3.4827470985777
13	157128	700	2.3225733643788
13	162498	720	1.843461172327
13	167751	740	1.432626726428
13	173086	760	1.1224659342463
13	178393	780	1.392403817114
13	183772	800	1.1741056100862
13	189068	820	1.7155422743675
13	194423	840	1.4124317307278
13	199737	860	2.1857244528728
13	204953	880	1.5885644409572
13	210227	900	0.87334190355771
13	215521	920	1.7181987730899
13	220838	940	1.099707428786
13	226172	960	2.2039249897452
13	231528	980	1.4811263485141
13	236873	1000	0.84906492234925
13	242110	1020	1.3828432668399