version 2
run statisticRVV-205-20150326-02:18:38-25280
attr c 9
attr configname statisticRVV
attr datetime 20150326-02:18:38
attr experiment statisticRVV
attr inifile omnetpp.ini
attr iterationvars "$sc=\"erlangen-medium.launchd.xml\", $p=1/8, $c=9"
attr iterationvars2 "$sc=\"erlangen-medium.launchd.xml\", $p=1/8, $c=9, $repetition=5"
attr measurement "$sc=\"erlangen-medium.launchd.xml\", $p=1/8, $c=9"
attr network RSUExampleScenario
attr p 1/8
attr processid 25280
attr repetition 5
attr replication #5
attr resultdir results
attr runnumber 205
attr sc "\"erlangen-medium.launchd.xml\""
attr seedset 205

vector 0  RSUExampleScenario.rsu[0].appl  Number_CH  ETV
vector 1  RSUExampleScenario.rsu[0].appl  Number_ON  ETV
vector 2  RSUExampleScenario.rsu[0].appl  Number_FN  ETV
vector 3  RSUExampleScenario.rsu[0].appl  Number_CH_Losts  ETV
vector 4  RSUExampleScenario.rsu[0].appl  Mean_Cluster_Size  ETV
vector 5  RSUExampleScenario.rsu[0].appl  StdDev_Cluster_Size  ETV
vector 6  RSUExampleScenario.rsu[0].appl  Variance_Cluster_Size  ETV
vector 7  RSUExampleScenario.rsu[0].appl  Mean_Neighbors  ETV
vector 8  RSUExampleScenario.rsu[0].appl  StdDev_Neighbors  ETV
vector 9  RSUExampleScenario.rsu[0].appl  Variance_Neighbors  ETV
vector 10  RSUExampleScenario.rsu[0].appl  Total_CH_Utility  ETV
vector 11  RSUExampleScenario.rsu[0].appl  Mean_CH_Utility  ETV
vector 12  RSUExampleScenario.rsu[0].appl  StdDev_CH_Utility  ETV
vector 13  RSUExampleScenario.rsu[0].appl  Variance_CH_Utility  ETV
vector 14  RSUExampleScenario.rsu[0].appl  Total_exp_CH_Utility  ETV
vector 15  RSUExampleScenario.rsu[0].appl  Mean_exp_CH_Utility  ETV
vector 16  RSUExampleScenario.rsu[0].appl  StdDev_exp_CH_Utility  ETV
vector 17  RSUExampleScenario.rsu[0].appl  Variance_exp_CH_Utility  ETV
vector 18  RSUExampleScenario.rsu[0].appl  Total_ON_Utility  ETV
vector 19  RSUExampleScenario.rsu[0].appl  Mean_ON_Utility  ETV
vector 20  RSUExampleScenario.rsu[0].appl  StdDev_ON_Utility  ETV
vector 21  RSUExampleScenario.rsu[0].appl  Variance_ON_Utility  ETV
vector 22  RSUExampleScenario.rsu[0].appl  Total_exp_ON_Utility  ETV
vector 23  RSUExampleScenario.rsu[0].appl  Mean_exp_ON_Utility  ETV
vector 24  RSUExampleScenario.rsu[0].appl  StdDev_exp_ON_Utility  ETV
vector 25  RSUExampleScenario.rsu[0].appl  Variance_exp_ON_Utility  ETV
0	145357	240	6
0	171016	260	12
0	197739	280	9
0	224935	300	10
0	252332	320	10
0	279387	340	11
0	306695	360	11
0	334326	380	9
0	362509	400	10
0	391234	420	8
0	420250	440	10
0	449736	460	7
0	479520	480	13
0	510435	500	9
0	541801	520	8
0	574006	540	8
0	606293	560	6
0	640023	580	6
0	674898	600	9
0	709851	620	11
0	746385	640	15
0	784477	660	14
0	823929	680	10
0	863986	700	10
0	905154	720	12
0	947435	740	11
0	990640	760	10
0	1035664	780	13
0	1081932	800	17
0	1128956	820	14
0	1177035	840	7
0	1226948	860	12
0	1277704	880	12
0	1328779	900	14
0	1382031	920	9
0	1437048	940	11
0	1492975	960	11
0	1549978	980	11
0	1608427	1000	11
0	1668653	1020	13
0	1729814	1040	9
0	1792801	1060	11
0	1857393	1080	12
0	1924146	1100	27
0	1991908	1120	13
0	2061625	1140	13
0	2133102	1160	10
0	2207355	1180	14
0	2283402	1200	15
0	2361262	1220	10
0	2441048	1240	15
0	2523067	1260	16
0	2607170	1280	11
0	2692577	1300	22
0	2780574	1320	17
0	2870403	1340	17
0	2962393	1360	8
0	3056278	1380	19
0	3152670	1400	12
0	3250833	1420	15
0	3351710	1440	20
0	3454263	1460	15
0	3559691	1480	18
0	3667586	1500	19
0	3776233	1520	20
0	3888161	1540	16
0	4002105	1560	12
0	4119062	1580	20
0	4237727	1600	19
0	4358736	1620	11
0	4482147	1640	19
0	4608045	1660	14
0	4737039	1680	17
0	4867529	1700	17
0	4999888	1720	23
0	5134545	1740	25
0	5271636	1760	15
0	5411494	1780	15
0	5553924	1800	20
0	5698376	1820	19
0	5845593	1840	18
0	5995317	1860	15
0	6147855	1880	18
0	6302775	1900	10
0	6459861	1920	22
0	6619936	1940	21
0	6782967	1960	21
0	6947742	1980	26
0	7114395	2000	28
1	145357	240	8
1	171016	260	17
1	197739	280	10
1	224935	300	14
1	252332	320	12
1	279387	340	14
1	306695	360	12
1	334326	380	12
1	362509	400	12
1	391234	420	11
1	420250	440	14
1	449736	460	10
1	479520	480	18
1	510435	500	14
1	541801	520	10
1	574006	540	12
1	606293	560	8
1	640023	580	9
1	674898	600	16
1	709851	620	14
1	746385	640	17
1	784477	660	20
1	823929	680	16
1	863986	700	12
1	905154	720	14
1	947435	740	14
1	990640	760	15
1	1035664	780	17
1	1081932	800	21
1	1128956	820	20
1	1177035	840	8
1	1226948	860	18
1	1277704	880	16
1	1328779	900	16
1	1382031	920	11
1	1437048	940	14
1	1492975	960	16
1	1549978	980	17
1	1608427	1000	14
1	1668653	1020	17
1	1729814	1040	11
1	1792801	1060	14
1	1857393	1080	16
1	1924146	1100	34
1	1991908	1120	19
1	2061625	1140	19
1	2133102	1160	16
1	2207355	1180	21
1	2283402	1200	19
1	2361262	1220	18
1	2441048	1240	20
1	2523067	1260	22
1	2607170	1280	17
1	2692577	1300	30
1	2780574	1320	24
1	2870403	1340	24
1	2962393	1360	12
1	3056278	1380	34
1	3152670	1400	20
1	3250833	1420	19
1	3351710	1440	27
1	3454263	1460	23
1	3559691	1480	26
1	3667586	1500	26
1	3776233	1520	26
1	3888161	1540	24
1	4002105	1560	17
1	4119062	1580	28
1	4237727	1600	28
1	4358736	1620	14
1	4482147	1640	29
1	4608045	1660	19
1	4737039	1680	25
1	4867529	1700	23
1	4999888	1720	35
1	5134545	1740	38
1	5271636	1760	22
1	5411494	1780	22
1	5553924	1800	28
1	5698376	1820	25
1	5845593	1840	29
1	5995317	1860	23
1	6147855	1880	22
1	6302775	1900	13
1	6459861	1920	30
1	6619936	1940	33
1	6782967	1960	32
1	6947742	1980	36
1	7114395	2000	47
2	145357	240	64
2	171016	260	55
2	197739	280	73
2	224935	300	70
2	252332	320	71
2	279387	340	67
2	306695	360	71
2	334326	380	73
2	362509	400	74
2	391234	420	78
2	420250	440	75
2	449736	460	82
2	479520	480	70
2	510435	500	80
2	541801	520	85
2	574006	540	84
2	606293	560	92
2	640023	580	92
2	674898	600	82
2	709851	620	84
2	746385	640	80
2	784477	660	79
2	823929	680	87
2	863986	700	94
2	905154	720	89
2	947435	740	92
2	990640	760	93
2	1035664	780	90
2	1081932	800	84
2	1128956	820	87
2	1177035	840	107
2	1226948	860	95
2	1277704	880	98
2	1328779	900	98
2	1382031	920	107
2	1437048	940	105
2	1492975	960	105
2	1549978	980	104
2	1608427	1000	107
2	1668653	1020	105
2	1729814	1040	114
2	1792801	1060	113
2	1857393	1080	110
2	1924146	1100	78
2	1991908	1120	108
2	2061625	1140	111
2	2133102	1160	116
2	2207355	1180	110
2	2283402	1200	112
2	2361262	1220	120
2	2441048	1240	114
2	2523067	1260	112
2	2607170	1280	122
2	2692577	1300	100
2	2780574	1320	112
2	2870403	1340	114
2	2962393	1360	136
2	3056278	1380	105
2	3152670	1400	126
2	3250833	1420	126
2	3351710	1440	114
2	3454263	1460	123
2	3559691	1480	118
2	3667586	1500	120
2	3776233	1520	119
2	3888161	1540	126
2	4002105	1560	139
2	4119062	1580	121
2	4237727	1600	125
2	4358736	1620	147
2	4482147	1640	125
2	4608045	1660	142
2	4737039	1680	135
2	4867529	1700	137
2	4999888	1720	120
2	5134545	1740	117
2	5271636	1760	144
2	5411494	1780	145
2	5553924	1800	135
2	5698376	1820	141
2	5845593	1840	140
2	5995317	1860	148
2	6147855	1880	149
2	6302775	1900	166
2	6459861	1920	137
2	6619936	1940	139
2	6782967	1960	140
2	6947742	1980	131
2	7114395	2000	118
3	145357	240	3
3	171016	260	3
3	197739	280	2
3	224935	300	3
3	252332	320	4
3	279387	340	3
3	306695	360	3
3	334326	380	5
3	362509	400	3
3	391234	420	4
3	420250	440	2
3	449736	460	4
3	479520	480	6
3	510435	500	7
3	541801	520	4
3	574006	540	5
3	606293	560	2
3	640023	580	2
3	674898	600	2
3	709851	620	4
3	746385	640	4
3	784477	660	6
3	823929	680	0
3	863986	700	4
3	905154	720	5
3	947435	740	3
3	990640	760	3
3	1035664	780	3
3	1081932	800	6
3	1128956	820	2
3	1177035	840	1
3	1226948	860	3
3	1277704	880	6
3	1328779	900	3
3	1382031	920	3
3	1437048	940	9
3	1492975	960	6
3	1549978	980	4
3	1608427	1000	4
3	1668653	1020	2
3	1729814	1040	3
3	1792801	1060	0
3	1857393	1080	7
3	1924146	1100	4
3	1991908	1120	1
3	2061625	1140	5
3	2133102	1160	1
3	2207355	1180	4
3	2283402	1200	6
3	2361262	1220	3
3	2441048	1240	2
3	2523067	1260	4
3	2607170	1280	2
3	2692577	1300	1
3	2780574	1320	5
3	2870403	1340	9
3	2962393	1360	3
3	3056278	1380	9
3	3152670	1400	3
3	3250833	1420	6
3	3351710	1440	3
3	3454263	1460	4
3	3559691	1480	4
3	3667586	1500	7
3	3776233	1520	5
3	3888161	1540	2
3	4002105	1560	4
3	4119062	1580	4
3	4237727	1600	1
3	4358736	1620	2
3	4482147	1640	5
3	4608045	1660	2
3	4737039	1680	6
3	4867529	1700	2
3	4999888	1720	8
3	5134545	1740	6
3	5271636	1760	3
3	5411494	1780	3
3	5553924	1800	5
3	5698376	1820	3
3	5845593	1840	2
3	5995317	1860	6
3	6147855	1880	3
3	6302775	1900	3
3	6459861	1920	3
3	6619936	1940	2
3	6782967	1960	5
3	6947742	1980	2
3	7114395	2000	2
4	145357	240	1.3333333333333
4	171016	260	1.4166666666667
4	197739	280	1.1111111111111
4	224935	300	1.4
4	252332	320	1.2
4	279387	340	1.2727272727273
4	306695	360	1.0909090909091
4	334326	380	1.3333333333333
4	362509	400	1.2
4	391234	420	1.375
4	420250	440	1.4
4	449736	460	1.4285714285714
4	479520	480	1.3846153846154
4	510435	500	1.5555555555556
4	541801	520	1.25
4	574006	540	1.5
4	606293	560	1.3333333333333
4	640023	580	1.5
4	674898	600	1.7777777777778
4	709851	620	1.2727272727273
4	746385	640	1.1333333333333
4	784477	660	1.4285714285714
4	823929	680	1.6
4	863986	700	1.2
4	905154	720	1.1666666666667
4	947435	740	1.2727272727273
4	990640	760	1.5
4	1035664	780	1.3076923076923
4	1081932	800	1.2352941176471
4	1128956	820	1.4285714285714
4	1177035	840	1.1428571428571
4	1226948	860	1.5
4	1277704	880	1.3333333333333
4	1328779	900	1.1428571428571
4	1382031	920	1.2222222222222
4	1437048	940	1.2727272727273
4	1492975	960	1.4545454545455
4	1549978	980	1.5454545454545
4	1608427	1000	1.2727272727273
4	1668653	1020	1.3076923076923
4	1729814	1040	1.2222222222222
4	1792801	1060	1.2727272727273
4	1857393	1080	1.3333333333333
4	1924146	1100	1.2592592592593
4	1991908	1120	1.4615384615385
4	2061625	1140	1.4615384615385
4	2133102	1160	1.6
4	2207355	1180	1.5
4	2283402	1200	1.2666666666667
4	2361262	1220	1.8
4	2441048	1240	1.3333333333333
4	2523067	1260	1.375
4	2607170	1280	1.5454545454545
4	2692577	1300	1.3636363636364
4	2780574	1320	1.4117647058824
4	2870403	1340	1.4117647058824
4	2962393	1360	1.5
4	3056278	1380	1.7894736842105
4	3152670	1400	1.6666666666667
4	3250833	1420	1.2666666666667
4	3351710	1440	1.35
4	3454263	1460	1.5333333333333
4	3559691	1480	1.4444444444444
4	3667586	1500	1.3684210526316
4	3776233	1520	1.3
4	3888161	1540	1.5
4	4002105	1560	1.4166666666667
4	4119062	1580	1.4
4	4237727	1600	1.4736842105263
4	4358736	1620	1.2727272727273
4	4482147	1640	1.5263157894737
4	4608045	1660	1.3571428571429
4	4737039	1680	1.4705882352941
4	4867529	1700	1.3529411764706
4	4999888	1720	1.5217391304348
4	5134545	1740	1.52
4	5271636	1760	1.4666666666667
4	5411494	1780	1.4666666666667
4	5553924	1800	1.4
4	5698376	1820	1.3157894736842
4	5845593	1840	1.6111111111111
4	5995317	1860	1.5333333333333
4	6147855	1880	1.2222222222222
4	6302775	1900	1.3
4	6459861	1920	1.3636363636364
4	6619936	1940	1.5714285714286
4	6782967	1960	1.5238095238095
4	6947742	1980	1.3846153846154
4	7114395	2000	1.6785714285714
5	145357	240	0.51639777949432
5	171016	260	0.51492865054444
5	197739	280	0.33333333333333
5	224935	300	0.51639777949432
5	252332	320	0.42163702135578
5	279387	340	0.46709936649691
5	306695	360	0.30151134457776
5	334326	380	0.5
5	362509	400	0.42163702135578
5	391234	420	0.51754916950677
5	420250	440	0.51639777949432
5	449736	460	0.53452248382485
5	479520	480	0.50636968354183
5	510435	500	0.52704627669473
5	541801	520	0.46291004988628
5	574006	540	0.53452248382485
5	606293	560	0.51639777949432
5	640023	580	0.54772255750517
5	674898	600	0.66666666666667
5	709851	620	0.46709936649691
5	746385	640	0.3518657752745
5	784477	660	0.5135525910131
5	823929	680	0.51639777949432
5	863986	700	0.42163702135578
5	905154	720	0.38924947208076
5	947435	740	0.46709936649691
5	990640	760	0.52704627669473
5	1035664	780	0.48038446141526
5	1081932	800	0.4372373160976
5	1128956	820	0.5135525910131
5	1177035	840	0.37796447300923
5	1226948	860	0.52223296786709
5	1277704	880	0.49236596391733
5	1328779	900	0.36313651960128
5	1382031	920	0.4409585518441
5	1437048	940	0.46709936649691
5	1492975	960	0.52223296786709
5	1549978	980	0.52223296786709
5	1608427	1000	0.46709936649691
5	1668653	1020	0.48038446141526
5	1729814	1040	0.4409585518441
5	1792801	1060	0.46709936649691
5	1857393	1080	0.49236596391733
5	1924146	1100	0.44657608470472
5	1991908	1120	0.51887452166277
5	2061625	1140	0.51887452166277
5	2133102	1160	0.51639777949432
5	2207355	1180	0.51887452166277
5	2283402	1200	0.45773770821706
5	2361262	1220	0.42163702135578
5	2441048	1240	0.48795003647427
5	2523067	1260	0.5
5	2607170	1280	0.52223296786709
5	2692577	1300	0.49236596391733
5	2780574	1320	0.50729965619589
5	2870403	1340	0.50729965619589
5	2962393	1360	0.53452248382485
5	3056278	1380	0.4188539082917
5	3152670	1400	0.49236596391733
5	3250833	1420	0.45773770821706
5	3351710	1440	0.48936048492959
5	3454263	1460	0.51639777949432
5	3559691	1480	0.51130999256491
5	3667586	1500	0.49559462778335
5	3776233	1520	0.47016234598163
5	3888161	1540	0.51639777949432
5	4002105	1560	0.51492865054444
5	4119062	1580	0.59824304161612
5	4237727	1600	0.6117752903215
5	4358736	1620	0.46709936649691
5	4482147	1640	0.51298917604258
5	4608045	1660	0.49724515809885
5	4737039	1680	0.51449575542753
5	4867529	1700	0.49259218307189
5	4999888	1720	0.51075391845525
5	5134545	1740	0.58594652770823
5	5271636	1760	0.51639777949432
5	5411494	1780	0.51639777949432
5	5553924	1800	0.50262468995003
5	5698376	1820	0.47756693294092
5	5845593	1840	0.50163132570455
5	5995317	1860	0.51639777949432
5	6147855	1880	0.4277926319465
5	6302775	1900	0.48304589153965
5	6459861	1920	0.49236596391733
5	6619936	1940	0.50709255283711
5	6782967	1960	0.51176631571916
5	6947742	1980	0.49613893835683
5	7114395	2000	0.47559486560567
6	145357	240	0.26666666666667
6	171016	260	0.26515151515152
6	197739	280	0.11111111111111
6	224935	300	0.26666666666667
6	252332	320	0.17777777777778
6	279387	340	0.21818181818182
6	306695	360	0.090909090909091
6	334326	380	0.25
6	362509	400	0.17777777777778
6	391234	420	0.26785714285714
6	420250	440	0.26666666666667
6	449736	460	0.28571428571429
6	479520	480	0.25641025641026
6	510435	500	0.27777777777778
6	541801	520	0.21428571428571
6	574006	540	0.28571428571429
6	606293	560	0.26666666666667
6	640023	580	0.3
6	674898	600	0.44444444444444
6	709851	620	0.21818181818182
6	746385	640	0.12380952380952
6	784477	660	0.26373626373626
6	823929	680	0.26666666666667
6	863986	700	0.17777777777778
6	905154	720	0.15151515151515
6	947435	740	0.21818181818182
6	990640	760	0.27777777777778
6	1035664	780	0.23076923076923
6	1081932	800	0.19117647058824
6	1128956	820	0.26373626373626
6	1177035	840	0.14285714285714
6	1226948	860	0.27272727272727
6	1277704	880	0.24242424242424
6	1328779	900	0.13186813186813
6	1382031	920	0.19444444444444
6	1437048	940	0.21818181818182
6	1492975	960	0.27272727272727
6	1549978	980	0.27272727272727
6	1608427	1000	0.21818181818182
6	1668653	1020	0.23076923076923
6	1729814	1040	0.19444444444444
6	1792801	1060	0.21818181818182
6	1857393	1080	0.24242424242424
6	1924146	1100	0.1994301994302
6	1991908	1120	0.26923076923077
6	2061625	1140	0.26923076923077
6	2133102	1160	0.26666666666667
6	2207355	1180	0.26923076923077
6	2283402	1200	0.20952380952381
6	2361262	1220	0.17777777777778
6	2441048	1240	0.23809523809524
6	2523067	1260	0.25
6	2607170	1280	0.27272727272727
6	2692577	1300	0.24242424242424
6	2780574	1320	0.25735294117647
6	2870403	1340	0.25735294117647
6	2962393	1360	0.28571428571429
6	3056278	1380	0.17543859649123
6	3152670	1400	0.24242424242424
6	3250833	1420	0.20952380952381
6	3351710	1440	0.23947368421053
6	3454263	1460	0.26666666666667
6	3559691	1480	0.26143790849673
6	3667586	1500	0.24561403508772
6	3776233	1520	0.22105263157895
6	3888161	1540	0.26666666666667
6	4002105	1560	0.26515151515152
6	4119062	1580	0.35789473684211
6	4237727	1600	0.37426900584795
6	4358736	1620	0.21818181818182
6	4482147	1640	0.26315789473684
6	4608045	1660	0.24725274725275
6	4737039	1680	0.26470588235294
6	4867529	1700	0.24264705882353
6	4999888	1720	0.26086956521739
6	5134545	1740	0.34333333333333
6	5271636	1760	0.26666666666667
6	5411494	1780	0.26666666666667
6	5553924	1800	0.25263157894737
6	5698376	1820	0.2280701754386
6	5845593	1840	0.2516339869281
6	5995317	1860	0.26666666666667
6	6147855	1880	0.18300653594771
6	6302775	1900	0.23333333333333
6	6459861	1920	0.24242424242424
6	6619936	1940	0.25714285714286
6	6782967	1960	0.26190476190476
6	6947742	1980	0.24615384615385
6	7114395	2000	0.22619047619048
7	145357	240	22.615384615385
7	171016	260	22.880952380952
7	197739	280	22.307692307692
7	224935	300	22.354838709677
7	252332	320	22.537634408602
7	279387	340	22.597826086957
7	306695	360	22.063829787234
7	334326	380	22.244680851064
7	362509	400	22.294736842105
7	391234	420	22.051546391753
7	420250	440	21.858585858586
7	449736	460	22.151515151515
7	479520	480	21.90099009901
7	510435	500	22.049019607843
7	541801	520	22.359223300971
7	574006	540	22.980769230769
7	606293	560	22.943396226415
7	640023	580	22.915887850467
7	674898	600	23.981308411215
7	709851	620	24.137614678899
7	746385	640	24.294642857143
7	784477	660	25.495575221239
7	823929	680	25.884955752212
7	863986	700	26.327586206897
7	905154	720	26.513043478261
7	947435	740	27.401709401709
7	990640	760	27.627118644068
7	1035664	780	28.558333333333
7	1081932	800	28.614754098361
7	1128956	820	28.791666666667
7	1177035	840	29.024590163934
7	1226948	860	29.464
7	1277704	880	30.134920634921
7	1328779	900	30.385826771654
7	1382031	920	30.149606299213
7	1437048	940	31.261538461538
7	1492975	960	31.93893129771
7	1549978	980	31.862595419847
7	1608427	1000	32.356060606061
7	1668653	1020	33.007462686567
7	1729814	1040	33.10447761194
7	1792801	1060	33.724637681159
7	1857393	1080	34.550724637681
7	1924146	1100	35.093525179856
7	1991908	1120	35.485714285714
7	2061625	1140	35.909090909091
7	2133102	1160	37.13475177305
7	2207355	1180	37.565517241379
7	2283402	1200	38.547945205479
7	2361262	1220	38.891891891892
7	2441048	1240	39.456375838926
7	2523067	1260	40.086666666667
7	2607170	1280	41.013333333333
7	2692577	1300	41.730263157895
7	2780574	1320	42.509803921569
7	2870403	1340	42.6
7	2962393	1360	43.820512820513
7	3056278	1380	43.860759493671
7	3152670	1400	44.892405063291
7	3250833	1420	45.75
7	3351710	1440	46.490683229814
7	3454263	1460	47.409937888199
7	3559691	1480	47.814814814815
7	3667586	1500	48.810975609756
7	3776233	1520	48.969696969697
7	3888161	1540	49.542168674699
7	4002105	1560	50.333333333333
7	4119062	1580	50.769230769231
7	4237727	1600	51.482558139535
7	4358736	1620	51.924418604651
7	4482147	1640	52.173410404624
7	4608045	1660	52.428571428571
7	4737039	1680	53.508571428571
7	4867529	1700	54.045197740113
7	4999888	1720	54.280898876404
7	5134545	1740	54.316666666667
7	5271636	1760	55.176795580111
7	5411494	1780	55.412087912088
7	5553924	1800	56.207650273224
7	5698376	1820	57.377049180328
7	5845593	1840	56.983957219251
7	5995317	1860	58.182795698925
7	6147855	1880	58.132275132275
7	6302775	1900	59.063492063492
7	6459861	1920	60.063492063492
7	6619936	1940	60.067357512953
7	6782967	1960	61.338541666667
7	6947742	1980	61.507772020725
7	7114395	2000	62.113989637306
8	145357	240	4.5733013147053
8	171016	260	3.8477180278448
8	197739	280	4.7062424447448
8	224935	300	4.0396006079226
8	252332	320	4.0231913024606
8	279387	340	4.1299223913329
8	306695	360	4.5668476001476
8	334326	380	4.7125688043527
8	362509	400	4.4670750204717
8	391234	420	4.662284700169
8	420250	440	4.6882617226215
8	449736	460	4.6496952640187
8	479520	480	4.9183431163249
8	510435	500	3.8649925415383
8	541801	520	3.78297105184
8	574006	540	3.6309905819793
8	606293	560	3.9637168431837
8	640023	580	3.7166669368373
8	674898	600	2.9587775025584
8	709851	620	3.2072484165883
8	746385	640	4.7829245696402
8	784477	660	4.5808683943684
8	823929	680	4.4756328610548
8	863986	700	6.0702780712311
8	905154	720	5.5699148272037
8	947435	740	6.5258898574881
8	990640	760	7.175214473306
8	1035664	780	7.4707225003925
8	1081932	800	7.874476733303
8	1128956	820	7.7121489155979
8	1177035	840	8.5081032009832
8	1226948	860	9.0076526604667
8	1277704	880	8.9562073889371
8	1328779	900	8.7287585656116
8	1382031	920	9.200654514466
8	1437048	940	10.271925950428
8	1492975	960	10.735101106751
8	1549978	980	10.793704260981
8	1608427	1000	11.191690330523
8	1668653	1020	11.823575447841
8	1729814	1040	12.544818093669
8	1792801	1060	12.849362002931
8	1857393	1080	13.522661414597
8	1924146	1100	13.487993633809
8	1991908	1120	14.291158263839
8	2061625	1140	14.717963102961
8	2133102	1160	14.79778934173
8	2207355	1180	16.115819433567
8	2283402	1200	16.661366500973
8	2361262	1220	17.4368189444
8	2441048	1240	17.573199504665
8	2523067	1260	18.491767319891
8	2607170	1280	18.650435576779
8	2692577	1300	19.601990166137
8	2780574	1320	20.113859337812
8	2870403	1340	20.472217474218
8	2962393	1360	20.999688839319
8	3056278	1380	21.295754295442
8	3152670	1400	22.341468524582
8	3250833	1420	22.744133254188
8	3351710	1440	23.319015312729
8	3454263	1460	23.501721226777
8	3559691	1480	24.307354463647
8	3667586	1500	24.497795098468
8	3776233	1520	24.998640022137
8	3888161	1540	25.628252026524
8	4002105	1560	25.743010601139
8	4119062	1580	26.309060543217
8	4237727	1600	26.419794510095
8	4358736	1620	26.446682260427
8	4482147	1640	26.712378204646
8	4608045	1660	27.251368956741
8	4737039	1680	27.045910004055
8	4867529	1700	27.329392105021
8	4999888	1720	27.347931376978
8	5134545	1740	28.060484352963
8	5271636	1760	27.938259563767
8	5411494	1780	28.357046091225
8	5553924	1800	28.909874096451
8	5698376	1820	29.022441450166
8	5845593	1840	29.235689622396
8	5995317	1860	29.259674763691
8	6147855	1880	29.878627984259
8	6302775	1900	30.204554230302
8	6459861	1920	30.423888124165
8	6619936	1940	30.775068063857
8	6782967	1960	31.051131180689
8	6947742	1980	31.191131079701
8	7114395	2000	31.45578015809
9	145357	240	20.915084915085
9	171016	260	14.804934021801
9	197739	280	22.148717948718
9	224935	300	16.318373071529
9	252332	320	16.186068256194
9	279387	340	17.056258958433
9	306695	360	20.856097002974
9	334326	380	22.208304735758
9	362509	400	19.954759238522
9	391234	420	21.73689862543
9	420250	440	21.979797979798
9	449736	460	21.619666048237
9	479520	480	24.190099009901
9	510435	500	14.938167346146
9	541801	520	14.31086997906
9	574006	540	13.184092606423
9	606293	560	15.711051212938
9	640023	580	13.813613119379
9	674898	600	8.7543643096456
9	709851	620	10.286442405708
9	746385	640	22.876367438867
9	784477	660	20.984355246523
9	823929	680	20.031289506953
9	863986	700	36.848275862069
9	905154	720	31.023951182304
9	947435	740	42.587238432066
9	990640	760	51.48370273794
9	1035664	780	55.811694677871
9	1081932	800	62.00738382333
9	1128956	820	59.477240896359
9	1177035	840	72.38782007858
9	1226948	860	81.137806451613
9	1277704	880	80.213650793651
9	1328779	900	76.191226096738
9	1382031	920	84.652043494563
9	1437048	940	105.51246273107
9	1492975	960	115.24239577217
9	1549978	980	116.50405167352
9	1608427	1000	125.25393245431
9	1668653	1020	139.79693637078
9	1729814	1040	157.37246100325
9	1792801	1060	165.10610388237
9	1857393	1080	182.86237173384
9	1924146	1100	181.92597226567
9	1991908	1120	204.2372045221
9	2061625	1140	216.61843790013
9	2133102	1160	218.97456940223
9	2207355	1180	259.71963601533
9	2283402	1200	277.60113367974
9	2361262	1220	304.0426548998
9	2441048	1240	308.81734083076
9	2523067	1260	341.94545861298
9	2607170	1280	347.83874720358
9	2692577	1300	384.23801847334
9	2780574	1320	404.5673374613
9	2870403	1340	419.11168831169
9	2962393	1360	440.98693134822
9	3056278	1380	453.50915101185
9	3152670	1400	499.14121583488
9	3250833	1420	517.29559748428
9	3351710	1440	543.77647515528
9	3454263	1460	552.33090062112
9	3559691	1480	590.84748102139
9	3667586	1500	600.14196468652
9	3776233	1520	624.93200295639
9	3888161	1540	656.80730193501
9	4002105	1560	662.70259481038
9	4119062	1580	692.16666666667
9	4237727	1600	698.00554195566
9	4358736	1620	699.42700258398
9	4482147	1640	713.55114934803
9	4608045	1660	742.63711001642
9	4737039	1680	731.48124794745
9	4867529	1700	746.89567282999
9	4999888	1720	747.90935059989
9	5134545	1740	787.39078212291
9	5271636	1760	780.54634745242
9	5411494	1780	804.12206301985
9	5553924	1800	835.78082027262
9	5698376	1820	842.30210772834
9	5845593	1840	854.72554769708
9	5995317	1860	856.12856727695
9	6147855	1880	892.73241022177
9	6302775	1900	912.31509625127
9	6459861	1920	925.61296859169
9	6619936	1940	947.10481433506
9	6782967	1960	964.17274760035
9	6947742	1980	972.88665803109
9	7114395	2000	989.46610535406
10	145357	240	283.27076046072
10	171016	260	572.32116933592
10	197739	280	439.90646695264
10	224935	300	478.34038708574
10	252332	320	474.24061027151
10	279387	340	524.68706140616
10	306695	360	524.574490646
10	334326	380	426.36277280888
10	362509	400	475.12123010733
10	391234	420	392.45035129599
10	420250	440	476.74535771486
10	449736	460	340.73084038739
10	479520	480	620.96230005426
10	510435	500	443.34824816692
10	541801	520	390.3517701999
10	574006	540	401.38906930244
10	606293	560	294.97021234861
10	640023	580	294.43307684432
10	674898	600	448.08760968848
10	709851	620	536.60070973499
10	746385	640	724.02059335534
10	784477	660	697.7310197726
10	823929	680	492.06161139017
10	863986	700	490.44228572948
10	905154	720	605.62807384462
10	947435	740	536.95315697747
10	990640	760	488.62419146246
10	1035664	780	636.69428639255
10	1081932	800	845.29022233063
10	1128956	820	686.24314126877
10	1177035	840	340.73106401307
10	1226948	860	598.81257753668
10	1277704	880	594.47584489298
10	1328779	900	697.1492135717
10	1382031	920	436.95606455922
10	1437048	940	546.54226799538
10	1492975	960	550.10733840758
10	1549978	980	540.55700442264
10	1608427	1000	541.44594536504
10	1668653	1020	655.28727160454
10	1729814	1040	446.62880896666
10	1792801	1060	548.61478510428
10	1857393	1080	595.55231873099
10	1924146	1100	1360.7947464456
10	1991908	1120	630.90808295374
10	2061625	1140	646.16434387828
10	2133102	1160	494.1649002298
10	2207355	1180	714.1477931188
10	2283402	1200	748.84326766161
10	2361262	1220	500.77986506567
10	2441048	1240	746.95846799996
10	2523067	1260	800.88110157411
10	2607170	1280	548.80950331953
10	2692577	1300	1103.5679710368
10	2780574	1320	839.02494603708
10	2870403	1340	867.18069572608
10	2962393	1360	398.76851388824
10	3056278	1380	960.00281458944
10	3152670	1400	581.47241551574
10	3250833	1420	754.90360130253
10	3351710	1440	1009.427078057
10	3454263	1460	767.98802874633
10	3559691	1480	891.70513538229
10	3667586	1500	948.04598149075
10	3776233	1520	985.92646052519
10	3888161	1540	797.84806448263
10	4002105	1560	602.74972421058
10	4119062	1580	997.13653874039
10	4237727	1600	957.41661932351
10	4358736	1620	550.99294078269
10	4482147	1640	947.39992795733
10	4608045	1660	703.74179257917
10	4737039	1680	843.48856093029
10	4867529	1700	860.35038127127
10	4999888	1720	1163.3184339871
10	5134545	1740	1259.843312344
10	5271636	1760	761.40989058515
10	5411494	1780	744.3209299219
10	5553924	1800	994.35233987943
10	5698376	1820	962.54262324976
10	5845593	1840	928.80087195704
10	5995317	1860	768.67350552072
10	6147855	1880	897.26562586372
10	6302775	1900	512.80267077558
10	6459861	1920	1104.5737362985
10	6619936	1940	1063.5322244796
10	6782967	1960	1042.9145072695
10	6947742	1980	1297.5202443295
10	7114395	2000	1400.9562363564
11	145357	240	47.211793410121
11	171016	260	47.693430777993
11	197739	280	48.878496328072
11	224935	300	47.834038708574
11	252332	320	47.424061027151
11	279387	340	47.698823764196
11	306695	360	47.688590058727
11	334326	380	47.373641423209
11	362509	400	47.512123010733
11	391234	420	49.056293911999
11	420250	440	47.674535771486
11	449736	460	48.675834341055
11	479520	480	47.766330773405
11	510435	500	49.260916462991
11	541801	520	48.793971274987
11	574006	540	50.173633662805
11	606293	560	49.161702058102
11	640023	580	49.072179474053
11	674898	600	49.787512187609
11	709851	620	48.781882703181
11	746385	640	48.268039557022
11	784477	660	49.837929983757
11	823929	680	49.206161139017
11	863986	700	49.044228572948
11	905154	720	50.469006153718
11	947435	740	48.813923361588
11	990640	760	48.862419146246
11	1035664	780	48.976483568658
11	1081932	800	49.722954254743
11	1128956	820	49.017367233484
11	1177035	840	48.675866287581
11	1226948	860	49.901048128057
11	1277704	880	49.539653741082
11	1328779	900	49.796372397979
11	1382031	920	48.550673839914
11	1437048	940	49.685660726852
11	1492975	960	50.009758037053
11	1549978	980	49.141545856604
11	1608427	1000	49.222358669549
11	1668653	1020	50.406713200349
11	1729814	1040	49.625423218518
11	1792801	1060	49.874071373116
11	1857393	1080	49.62935989425
11	1924146	1100	50.399805423912
11	1991908	1120	48.531390996442
11	2061625	1140	49.704949529099
11	2133102	1160	49.41649002298
11	2207355	1180	51.010556651343
11	2283402	1200	49.922884510774
11	2361262	1220	50.077986506567
11	2441048	1240	49.797231199997
11	2523067	1260	50.055068848382
11	2607170	1280	49.891773029048
11	2692577	1300	50.162180501672
11	2780574	1320	49.354408590416
11	2870403	1340	51.010629160358
11	2962393	1360	49.84606423603
11	3056278	1380	50.52646392576
11	3152670	1400	48.456034626312
11	3250833	1420	50.326906753502
11	3351710	1440	50.471353902848
11	3454263	1460	51.199201916422
11	3559691	1480	49.539174187905
11	3667586	1500	49.897156920566
11	3776233	1520	49.296323026259
11	3888161	1540	49.865504030164
11	4002105	1560	50.229143684215
11	4119062	1580	49.856826937019
11	4237727	1600	50.390348385448
11	4358736	1620	50.090267343881
11	4482147	1640	49.863154103017
11	4608045	1660	50.267270898512
11	4737039	1680	49.61697417237
11	4867529	1700	50.608845957134
11	4999888	1720	50.579062347264
11	5134545	1740	50.39373249376
11	5271636	1760	50.760659372343
11	5411494	1780	49.621395328127
11	5553924	1800	49.717616993972
11	5698376	1820	50.660138065777
11	5845593	1840	51.600048442058
11	5995317	1860	51.244900368048
11	6147855	1880	49.848090325762
11	6302775	1900	51.280267077558
11	6459861	1920	50.207897104478
11	6619936	1940	50.644391641888
11	6782967	1960	49.66259558426
11	6947742	1980	49.904624781903
11	7114395	2000	50.034151298443
12	145357	240	1.8961870157309
12	171016	260	2.0380611549405
12	197739	280	2.697665679419