version 2
run statisticRVV-143-20150325-15:18:24-13972
attr c 16
attr configname statisticRVV
attr datetime 20150325-15:18:24
attr experiment statisticRVV
attr inifile omnetpp.ini
attr iterationvars "$sc=\"erlangen-medium.launchd.xml\", $p=1/15, $c=16"
attr iterationvars2 "$sc=\"erlangen-medium.launchd.xml\", $p=1/15, $c=16, $repetition=3"
attr measurement "$sc=\"erlangen-medium.launchd.xml\", $p=1/15, $c=16"
attr network RSUExampleScenario
attr p 1/15
attr processid 13972
attr repetition 3
attr replication #3
attr resultdir results
attr runnumber 143
attr sc "\"erlangen-medium.launchd.xml\""
attr seedset 143

vector 0  RSUExampleScenario.rsu[0].appl  Number_CH  ETV
vector 1  RSUExampleScenario.rsu[0].appl  Number_ON  ETV
vector 2  RSUExampleScenario.rsu[0].appl  Number_FN  ETV
vector 3  RSUExampleScenario.rsu[0].appl  Number_CH_Losts  ETV
vector 4  RSUExampleScenario.rsu[0].appl  Mean_Cluster_Size  ETV
vector 5  RSUExampleScenario.rsu[0].appl  StdDev_Cluster_Size  ETV
vector 6  RSUExampleScenario.rsu[0].appl  Variance_Cluster_Size  ETV
vector 7  RSUExampleScenario.rsu[0].appl  Mean_Neighbors  ETV
vector 8  RSUExampleScenario.rsu[0].appl  StdDev_Neighbors  ETV
vector 9  RSUExampleScenario.rsu[0].appl  Variance_Neighbors  ETV
vector 10  RSUExampleScenario.rsu[0].appl  Total_CH_Utility  ETV
vector 11  RSUExampleScenario.rsu[0].appl  Mean_CH_Utility  ETV
vector 12  RSUExampleScenario.rsu[0].appl  StdDev_CH_Utility  ETV
vector 13  RSUExampleScenario.rsu[0].appl  Variance_CH_Utility  ETV
vector 14  RSUExampleScenario.rsu[0].appl  Total_exp_CH_Utility  ETV
vector 15  RSUExampleScenario.rsu[0].appl  Mean_exp_CH_Utility  ETV
vector 16  RSUExampleScenario.rsu[0].appl  StdDev_exp_CH_Utility  ETV
vector 17  RSUExampleScenario.rsu[0].appl  Variance_exp_CH_Utility  ETV
vector 18  RSUExampleScenario.rsu[0].appl  Total_ON_Utility  ETV
vector 19  RSUExampleScenario.rsu[0].appl  Mean_ON_Utility  ETV
vector 20  RSUExampleScenario.rsu[0].appl  StdDev_ON_Utility  ETV
vector 21  RSUExampleScenario.rsu[0].appl  Variance_ON_Utility  ETV
vector 22  RSUExampleScenario.rsu[0].appl  Total_exp_ON_Utility  ETV
vector 23  RSUExampleScenario.rsu[0].appl  Mean_exp_ON_Utility  ETV
vector 24  RSUExampleScenario.rsu[0].appl  StdDev_exp_ON_Utility  ETV
vector 25  RSUExampleScenario.rsu[0].appl  Variance_exp_ON_Utility  ETV
0	144977	240	9
0	171114	260	3
0	198389	280	2
0	225546	300	2
0	252598	320	5
0	280091	340	5
0	307980	360	5
0	335765	380	5
0	363767	400	5
0	392164	420	4
0	421280	440	8
0	450717	460	5
0	480732	480	6
0	511481	500	9
0	542977	520	6
0	575160	540	3
0	608260	560	3
0	641752	580	6
0	676412	600	6
0	711803	620	4
0	748085	640	12
0	786061	660	5
0	824591	680	6
0	864377	700	6
0	905540	720	7
0	948352	740	8
0	992547	760	9
0	1037598	780	12
0	1084197	800	4
0	1131335	820	8
0	1180093	840	10
0	1229525	860	7
0	1279863	880	7
0	1331647	900	7
0	1384417	920	7
0	1438829	940	9
0	1494364	960	6
0	1551369	980	8
0	1610123	1000	10
0	1670332	1020	7
0	1731751	1040	7
0	1794781	1060	8
0	1858949	1080	11
0	1925536	1100	5
0	1994091	1120	10
0	2063936	1140	9
0	2135744	1160	6
0	2209258	1180	7
0	2285220	1200	10
0	2362666	1220	9
0	2441842	1240	6
0	2523292	1260	4
0	2605795	1280	7
0	2691142	1300	6
0	2778359	1320	6
0	2868000	1340	9
0	2959809	1360	11
0	3053735	1380	7
0	3149159	1400	9
0	3248093	1420	8
0	3348252	1440	10
0	3450199	1460	9
0	3555388	1480	10
0	3662566	1500	11
0	3772379	1520	8
0	3885135	1540	9
0	4000465	1560	12
0	4117204	1580	12
0	4236144	1600	8
0	4357790	1620	10
0	4482428	1640	6
0	4608244	1660	14
0	4736142	1680	4
0	4865559	1700	6
0	4997997	1720	9
0	5133356	1740	11
0	5270801	1760	10
0	5411014	1780	10
0	5553779	1800	3
0	5699949	1820	14
0	5847616	1840	10
0	5997606	1860	12
0	6150291	1880	12
0	6305606	1900	7
0	6463601	1920	8
0	6625067	1940	10
0	6788743	1960	13
0	6954147	1980	8
0	7122356	2000	10
1	144977	240	14
1	171114	260	5
1	198389	280	2
1	225546	300	3
1	252598	320	6
1	280091	340	8
1	307980	360	9
1	335765	380	6
1	363767	400	6
1	392164	420	4
1	421280	440	11
1	450717	460	6
1	480732	480	8
1	511481	500	14
1	542977	520	9
1	575160	540	5
1	608260	560	4
1	641752	580	6
1	676412	600	8
1	711803	620	7
1	748085	640	14
1	786061	660	9
1	824591	680	8
1	864377	700	7
1	905540	720	9
1	948352	740	8
1	992547	760	11
1	1037598	780	16
1	1084197	800	7
1	1131335	820	12
1	1180093	840	15
1	1229525	860	13
1	1279863	880	9
1	1331647	900	13
1	1384417	920	8
1	1438829	940	13
1	1494364	960	11
1	1551369	980	14
1	1610123	1000	17
1	1670332	1020	9
1	1731751	1040	9
1	1794781	1060	12
1	1858949	1080	18
1	1925536	1100	6
1	1994091	1120	13
1	2063936	1140	11
1	2135744	1160	8
1	2209258	1180	11
1	2285220	1200	14
1	2362666	1220	15
1	2441842	1240	7
1	2523292	1260	8
1	2605795	1280	12
1	2691142	1300	10
1	2778359	1320	9
1	2868000	1340	11
1	2959809	1360	19
1	3053735	1380	13
1	3149159	1400	16
1	3248093	1420	12
1	3348252	1440	11
1	3450199	1460	11
1	3555388	1480	14
1	3662566	1500	16
1	3772379	1520	11
1	3885135	1540	10
1	4000465	1560	15
1	4117204	1580	18
1	4236144	1600	12
1	4357790	1620	17
1	4482428	1640	8
1	4608244	1660	19
1	4736142	1680	5
1	4865559	1700	9
1	4997997	1720	12
1	5133356	1740	15
1	5270801	1760	17
1	5411014	1780	17
1	5553779	1800	5
1	5699949	1820	20
1	5847616	1840	16
1	5997606	1860	20
1	6150291	1880	19
1	6305606	1900	9
1	6463601	1920	13
1	6625067	1940	12
1	6788743	1960	17
1	6954147	1980	10
1	7122356	2000	14
2	144977	240	57
2	171114	260	79
2	198389	280	89
2	225546	300	90
2	252598	320	85
2	280091	340	84
2	307980	360	81
2	335765	380	82
2	363767	400	85
2	392164	420	88
2	421280	440	79
2	450717	460	89
2	480732	480	87
2	511481	500	79
2	542977	520	90
2	575160	540	97
2	608260	560	100
2	641752	580	95
2	676412	600	95
2	711803	620	99
2	748085	640	85
2	786061	660	97
2	824591	680	101
2	864377	700	101
2	905540	720	99
2	948352	740	101
2	992547	760	98
2	1037598	780	92
2	1084197	800	112
2	1131335	820	101
2	1180093	840	100
2	1229525	860	104
2	1279863	880	109
2	1331647	900	107
2	1384417	920	114
2	1438829	940	109
2	1494364	960	115
2	1551369	980	111
2	1610123	1000	108
2	1670332	1020	119
2	1731751	1040	119
2	1794781	1060	117
2	1858949	1080	109
2	1925536	1100	130
2	1994091	1120	117
2	2063936	1140	122
2	2135744	1160	130
2	2209258	1180	127
2	2285220	1200	122
2	2362666	1220	123
2	2441842	1240	134
2	2523292	1260	138
2	2605795	1280	132
2	2691142	1300	136
2	2778359	1320	138
2	2868000	1340	134
2	2959809	1360	126
2	3053735	1380	136
2	3149159	1400	134
2	3248093	1420	140
2	3348252	1440	140
2	3450199	1460	142
2	3555388	1480	140
2	3662566	1500	137
2	3772379	1520	146
2	3885135	1540	150
2	4000465	1560	141
2	4117204	1580	140
2	4236144	1600	151
2	4357790	1620	146
2	4482428	1640	160
2	4608244	1660	142
2	4736142	1680	167
2	4865559	1700	162
2	4997997	1720	156
2	5133356	1740	153
2	5270801	1760	155
2	5411014	1780	156
2	5553779	1800	176
2	5699949	1820	150
2	5847616	1840	160
2	5997606	1860	155
2	6150291	1880	157
2	6305606	1900	174
2	6463601	1920	169
2	6625067	1940	170
2	6788743	1960	164
2	6954147	1980	176
2	7122356	2000	174
3	144977	240	2
3	171114	260	0
3	198389	280	2
3	225546	300	2
3	252598	320	1
3	280091	340	2
3	307980	360	1
3	335765	380	1
3	363767	400	3
3	392164	420	3
3	421280	440	0
3	450717	460	3
3	480732	480	2
3	511481	500	3
3	542977	520	3
3	575160	540	3
3	608260	560	0
3	641752	580	1
3	676412	600	2
3	711803	620	2
3	748085	640	4
3	786061	660	0
3	824591	680	0
3	864377	700	0
3	905540	720	4
3	948352	740	2
3	992547	760	0
3	1037598	780	4
3	1084197	800	1
3	1131335	820	0
3	1180093	840	0
3	1229525	860	3
3	1279863	880	4
3	1331647	900	1
3	1384417	920	2
3	1438829	940	4
3	1494364	960	3
3	1551369	980	4
3	1610123	1000	2
3	1670332	1020	2
3	1731751	1040	2
3	1794781	1060	1
3	1858949	1080	1
3	1925536	1100	4
3	1994091	1120	1
3	2063936	1140	2
3	2135744	1160	1
3	2209258	1180	1
3	2285220	1200	1
3	2362666	1220	1
3	2441842	1240	4
3	2523292	1260	1
3	2605795	1280	1
3	2691142	1300	2
3	2778359	1320	1
3	2868000	1340	4
3	2959809	1360	7
3	3053735	1380	2
3	3149159	1400	1
3	3248093	1420	2
3	3348252	1440	3
3	3450199	1460	5
3	3555388	1480	3
3	3662566	1500	2
3	3772379	1520	3
3	3885135	1540	2
3	4000465	1560	1
3	4117204	1580	4
3	4236144	1600	4
3	4357790	1620	3
3	4482428	1640	4
3	4608244	1660	0
3	4736142	1680	0
3	4865559	1700	3
3	4997997	1720	4
3	5133356	1740	5
3	5270801	1760	2
3	5411014	1780	2
3	5553779	1800	6
3	5699949	1820	2
3	5847616	1840	1
3	5997606	1860	2
3	6150291	1880	4
3	6305606	1900	3
3	6463601	1920	5
3	6625067	1940	0
3	6788743	1960	4
3	6954147	1980	3
3	7122356	2000	3
4	144977	240	1.5555555555556
4	171114	260	1.6666666666667
4	198389	280	1
4	225546	300	1.5
4	252598	320	1.2
4	280091	340	1.6
4	307980	360	1.8
4	335765	380	1.2
4	363767	400	1.2
4	392164	420	1
4	421280	440	1.375
4	450717	460	1.2
4	480732	480	1.3333333333333
4	511481	500	1.5555555555556
4	542977	520	1.5
4	575160	540	1.6666666666667
4	608260	560	1.3333333333333
4	641752	580	1
4	676412	600	1.3333333333333
4	711803	620	1.75
4	748085	640	1.1666666666667
4	786061	660	1.8
4	824591	680	1.3333333333333
4	864377	700	1.1666666666667
4	905540	720	1.2857142857143
4	948352	740	1
4	992547	760	1.2222222222222
4	1037598	780	1.3333333333333
4	1084197	800	1.75
4	1131335	820	1.5
4	1180093	840	1.5
4	1229525	860	1.8571428571429
4	1279863	880	1.2857142857143
4	1331647	900	1.8571428571429
4	1384417	920	1.1428571428571
4	1438829	940	1.4444444444444
4	1494364	960	1.8333333333333
4	1551369	980	1.75
4	1610123	1000	1.7
4	1670332	1020	1.2857142857143
4	1731751	1040	1.2857142857143
4	1794781	1060	1.5
4	1858949	1080	1.6363636363636
4	1925536	1100	1.2
4	1994091	1120	1.3
4	2063936	1140	1.2222222222222
4	2135744	1160	1.3333333333333
4	2209258	1180	1.5714285714286
4	2285220	1200	1.4
4	2362666	1220	1.6666666666667
4	2441842	1240	1.1666666666667
4	2523292	1260	2
4	2605795	1280	1.7142857142857
4	2691142	1300	1.6666666666667
4	2778359	1320	1.5
4	2868000	1340	1.2222222222222
4	2959809	1360	1.7272727272727
4	3053735	1380	1.8571428571429
4	3149159	1400	1.7777777777778
4	3248093	1420	1.5
4	3348252	1440	1.1
4	3450199	1460	1.2222222222222
4	3555388	1480	1.4
4	3662566	1500	1.4545454545455
4	3772379	1520	1.375
4	3885135	1540	1.1111111111111
4	4000465	1560	1.25
4	4117204	1580	1.5
4	4236144	1600	1.5
4	4357790	1620	1.7
4	4482428	1640	1.3333333333333
4	4608244	1660	1.3571428571429
4	4736142	1680	1.25
4	4865559	1700	1.5
4	4997997	1720	1.3333333333333
4	5133356	1740	1.3636363636364
4	5270801	1760	1.7
4	5411014	1780	1.7
4	5553779	1800	1.6666666666667
4	5699949	1820	1.4285714285714
4	5847616	1840	1.6
4	5997606	1860	1.6666666666667
4	6150291	1880	1.5833333333333
4	6305606	1900	1.2857142857143
4	6463601	1920	1.625
4	6625067	1940	1.2
4	6788743	1960	1.3076923076923
4	6954147	1980	1.25
4	7122356	2000	1.4
5	144977	240	0.52704627669473
5	171114	260	0.57735026918963
5	198389	280	0
5	225546	300	0.70710678118655
5	252598	320	0.44721359549996
5	280091	340	0.54772255750517
5	307980	360	0.44721359549996
5	335765	380	0.44721359549996
5	363767	400	0.44721359549996
5	392164	420	0
5	421280	440	0.51754916950677
5	450717	460	0.44721359549996
5	480732	480	0.51639777949432
5	511481	500	0.52704627669473
5	542977	520	0.54772255750517
5	575160	540	0.57735026918963
5	608260	560	0.57735026918963
5	641752	580	0
5	676412	600	0.51639777949432
5	711803	620	0.5
5	748085	640	0.38924947208076
5	786061	660	0.44721359549996
5	824591	680	0.51639777949432
5	864377	700	0.40824829046386
5	905540	720	0.48795003647427
5	948352	740	0
5	992547	760	0.4409585518441
5	1037598	780	0.49236596391733
5	1084197	800	0.5
5	1131335	820	0.53452248382485
5	1180093	840	0.52704627669473
5	1229525	860	0.69006555934235
5	1279863	880	0.48795003647427
5	1331647	900	0.69006555934235
5	1384417	920	0.37796447300923
5	1438829	940	0.52704627669473
5	1494364	960	0.40824829046386
5	1551369	980	0.46291004988628
5	1610123	1000	0.82327260234856
5	1670332	1020	0.48795003647427
5	1731751	1040	0.48795003647427
5	1794781	1060	0.53452248382485
5	1858949	1080	0.50452497910951
5	1925536	1100	0.44721359549996
5	1994091	1120	0.48304589153965
5	2063936	1140	0.4409585518441
5	2135744	1160	0.51639777949432
5	2209258	1180	0.53452248382485
5	2285220	1200	0.51639777949432
5	2362666	1220	0.5
5	2441842	1240	0.40824829046386
5	2523292	1260	0
5	2605795	1280	0.48795003647427
5	2691142	1300	0.51639777949432
5	2778359	1320	0.54772255750517
5	2868000	1340	0.4409585518441
5	2959809	1360	0.64666979068286
5	3053735	1380	0.69006555934235
5	3149159	1400	0.66666666666667
5	3248093	1420	0.53452248382485
5	3348252	1440	0.31622776601684
5	3450199	1460	0.4409585518441
5	3555388	1480	0.51639777949432
5	3662566	1500	0.52223296786709
5	3772379	1520	0.51754916950677
5	3885135	1540	0.33333333333333
5	4000465	1560	0.45226701686665
5	4117204	1580	0.52223296786709
5	4236144	1600	0.53452248382485
5	4357790	1620	0.48304589153965
5	4482428	1640	0.51639777949432
5	4608244	1660	0.49724515809885
5	4736142	1680	0.5
5	4865559	1700	0.54772255750517
5	4997997	1720	0.5
5	5133356	1740	0.50452497910951
5	5270801	1760	0.48304589153965
5	5411014	1780	0.48304589153965
5	5553779	1800	0.57735026918963
5	5699949	1820	0.5135525910131
5	5847616	1840	0.51639777949432
5	5997606	1860	0.49236596391733
5	6150291	1880	0.51492865054444
5	6305606	1900	0.48795003647427
5	6463601	1920	0.51754916950677
5	6625067	1940	0.42163702135578
5	6788743	1960	0.48038446141526
5	6954147	1980	0.46291004988628
5	7122356	2000	0.51639777949432
6	144977	240	0.27777777777778
6	171114	260	0.33333333333333
6	198389	280	0
6	225546	300	0.5
6	252598	320	0.2
6	280091	340	0.3
6	307980	360	0.2
6	335765	380	0.2
6	363767	400	0.2
6	392164	420	0
6	421280	440	0.26785714285714
6	450717	460	0.2
6	480732	480	0.26666666666667
6	511481	500	0.27777777777778
6	542977	520	0.3
6	575160	540	0.33333333333333
6	608260	560	0.33333333333333
6	641752	580	0
6	676412	600	0.26666666666667
6	711803	620	0.25
6	748085	640	0.15151515151515
6	786061	660	0.2
6	824591	680	0.26666666666667
6	864377	700	0.16666666666667
6	905540	720	0.23809523809524
6	948352	740	0
6	992547	760	0.19444444444444
6	1037598	780	0.24242424242424
6	1084197	800	0.25
6	1131335	820	0.28571428571429
6	1180093	840	0.27777777777778
6	1229525	860	0.47619047619048
6	1279863	880	0.23809523809524
6	1331647	900	0.47619047619048
6	1384417	920	0.14285714285714
6	1438829	940	0.27777777777778
6	1494364	960	0.16666666666667
6	1551369	980	0.21428571428571
6	1610123	1000	0.67777777777778
6	1670332	1020	0.23809523809524
6	1731751	1040	0.23809523809524
6	1794781	1060	0.28571428571429
6	1858949	1080	0.25454545454545
6	1925536	1100	0.2
6	1994091	1120	0.23333333333333
6	2063936	1140	0.19444444444444
6	2135744	1160	0.26666666666667
6	2209258	1180	0.28571428571429
6	2285220	1200	0.26666666666667
6	2362666	1220	0.25
6	2441842	1240	0.16666666666667
6	2523292	1260	0
6	2605795	1280	0.23809523809524
6	2691142	1300	0.26666666666667
6	2778359	1320	0.3
6	2868000	1340	0.19444444444444
6	2959809	1360	0.41818181818182
6	3053735	1380	0.47619047619048
6	3149159	1400	0.44444444444444
6	3248093	1420	0.28571428571429
6	3348252	1440	0.1
6	3450199	1460	0.19444444444444
6	3555388	1480	0.26666666666667
6	3662566	1500	0.27272727272727
6	3772379	1520	0.26785714285714
6	3885135	1540	0.11111111111111
6	4000465	1560	0.20454545454545
6	4117204	1580	0.27272727272727
6	4236144	1600	0.28571428571429
6	4357790	1620	0.23333333333333
6	4482428	1640	0.26666666666667
6	4608244	1660	0.24725274725275
6	4736142	1680	0.25
6	4865559	1700	0.3
6	4997997	1720	0.25
6	5133356	1740	0.25454545454545
6	5270801	1760	0.23333333333333
6	5411014	1780	0.23333333333333
6	5553779	1800	0.33333333333333
6	5699949	1820	0.26373626373626
6	5847616	1840	0.26666666666667
6	5997606	1860	0.24242424242424
6	6150291	1880	0.26515151515152
6	6305606	1900	0.23809523809524
6	6463601	1920	0.26785714285714
6	6625067	1940	0.17777777777778
6	6788743	1960	0.23076923076923
6	6954147	1980	0.21428571428571
6	7122356	2000	0.26666666666667
7	144977	240	22.4875
7	171114	260	23.047058823529
7	198389	280	22
7	225546	300	22.117021276596
7	252598	320	21.895833333333
7	280091	340	21.773195876289
7	307980	360	22.568421052632
7	335765	380	22.344086021505
7	363767	400	22.336842105263
7	392164	420	22.052083333333
7	421280	440	22.377551020408
7	450717	460	21.76
7	480732	480	22.257425742574
7	511481	500	22.539215686275
7	542977	520	22.219047619048
7	575160	540	22.742857142857
7	608260	560	23.327102803738
7	641752	580	23.345794392523
7	676412	600	23.761467889908
7	711803	620	23.981818181818
7	748085	640	24.290909090909
7	786061	660	25.567567567568
7	824591	680	25.521739130435
7	864377	700	26.535087719298
7	905540	720	26.826086956522
7	948352	740	27.461538461538
7	992547	760	27.957627118644
7	1037598	780	28.208333333333
7	1084197	800	28.536585365854
7	1131335	820	28.818181818182
7	1180093	840	29.16
7	1229525	860	29.620967741935
7	1279863	880	30.104838709677
7	1331647	900	29.874015748031
7	1384417	920	30.410852713178
7	1438829	940	30.916030534351
7	1494364	960	31.325757575758
7	1551369	980	31.676691729323
7	1610123	1000	31.992592592593
7	1670332	1020	33.119402985075
7	1731751	1040	33.288888888889
7	1794781	1060	33.985294117647
7	1858949	1080	34.007246376812
7	1925536	1100	34.283687943262
7	1994091	1120	35.928057553957
7	2063936	1140	35.985915492958
7	2135744	1160	36.909722222222
7	2209258	1180	37.006896551724
7	2285220	1200	38.198630136986
7	2362666	1220	38.891156462585
7	2441842	1240	39.462585034014
7	2523292	1260	40.563758389262
7	2605795	1280	40.913333333333
7	2691142	1300	41.205298013245
7	2778359	1320	42.190789473684
7	2868000	1340	42.396103896104
7	2959809	1360	43.282051282051
7	3053735	1380	44.339743589744
7	3149159	1400	44.308176100629
7	3248093	1420	46.006289308176
7	3348252	1440	46.459627329193
7	3450199	1460	47.037037037037
7	3555388	1480	46.914634146341
7	3662566	1500	48.012195121951
7	3772379	1520	48.89696969697
7	3885135	1540	49.692307692308
7	4000465	1560	50.803571428571
7	4117204	1580	50.794117647059
7	4236144	1600	51.017647058824
7	4357790	1620	51.462427745665
7	4482428	1640	52.293103448276
7	4608244	1660	53.241379310345
7	4736142	1680	53.306818181818
7	4865559	1700	53.744318181818
7	4997997	1720	54.16384180791
7	5133356	1740	54.837988826816
7	5270801	1760	55.032967032967
7	5411014	1780	55.72131147541
7	5553779	1800	56.554347826087
7	5699949	1820	57.190217391304
7	5847616	1840	57.559139784946
7	5997606	1860	58.096256684492
7	6150291	1880	58.936170212766
7	6305606	1900	58.794736842105
7	6463601	1920	60.375661375661
7	6625067	1940	60.816753926702
7	6788743	1960	60.974226804124
7	6954147	1980	61.737113402062
7	7122356	2000	61.583756345178
8	144977	240	5.1039665637173
8	171114	260	4.4425054126851
8	198389	280	4.7204458153497
8	225546	300	4.7038222457883
8	252598	320	5.0356187445388
8	280091	340	5.0010522947659
8	307980	360	4.2792240089415
8	335765	380	4.4611721594216
8	363767	400	4.4281750871509
8	392164	420	4.5407390811969
8	421280	440	4.366024651815
8	450717	460	5.0554900650659
8	480732	480	4.5247175941633
8	511481	500	4.4224261264727
8	542977	520	4.5212765223929
8	575160	540	3.5949445577959
8	608260	560	4.0649809137257
8	641752	580	3.453471875528
8	676412	600	3.2657002044505
8	711803	620	4.1286242197965
8	748085	640	3.8915232614507
8	786061	660	4.1639614477772
8	824591	680	5.0841132437437
8	864377	700	5.3648805949012
8	905540	720	6.2101513804263
8	948352	740	6.1202581384855
8	992547	760	7.1173245571088
8	1037598	780	7.7686028651354
8	1084197	800	8.6491662470606
8	1131335	820	7.6332605527826
8	1180093	840	8.8394278022374
8	1229525	860	8.3710619834438
8	1279863	880	8.8472296416165
8	1331647	900	9.2504758573303
8	1384417	920	10.241316751202
8	1438829	940	10.738885608951
8	1494364	960	10.838506567445
8	1551369	980	10.923666878084
8	1610123	1000	11.436715095845
8	1670332	1020	11.21696136203
8	1731751	1040	12.319058567119
8	1794781	1060	12.605104958863
8	1858949	1080	13.354512825265
8	1925536	1100	14.115506286722
8	1994091	1120	14.677025469568
8	2063936	1140	14.78881401864
8	2135744	1160	15.091290126578
8	2209258	1180	15.768506125839
8	2285220	1200	16.566946678506
8	2362666	1220	17.105686490091
8	2441842	1240	17.854155001178
8	2523292	1260	18.075787204887
8	2605795	1280	18.924766865007
8	2691142	1300	18.883967761321
8	2778359	1320	19.523032263882
8	2868000	1340	20.234707396302
8	2959809	1360	21.055317272426
8	3053735	1380	21.23068284647
8	3149159	1400	21.940930390464
8	3248093	1420	21.915689095912
8	3348252	1440	22.917240723094
8	3450199	1460	23.771136756981
8	3555388	1480	23.663904961456
8	3662566	1500	23.943437387411
8	3772379	1520	24.511227950458
8	3885135	1540	25.524964437268
8	4000465	1560	25.798217208184
8	4117204	1580	25.902616225458
8	4236144	1600	26.180410384905
8	4357790	1620	26.746115321098
8	4482428	1640	27.040330799288
8	4608244	1660	26.835170398953
8	4736142	1680	27.107134729564
8	4865559	1700	27.282385140618
8	4997997	1720	27.716733601207
8	5133356	1740	28.114962795834
8	5270801	1760	28.337722764534
8	5411014	1780	28.696477833156
8	5553779	1800	28.447195499957
8	5699949	1820	29.148418246815
8	5847616	1840	29.683178370501
8	5997606	1860	29.493234815645
8	6150291	1880	30.054605744058
8	6305606	1900	30.399021386438
8	6463601	1920	30.249347455801
8	6625067	1940	30.979669597252
8	6788743	1960	31.090447288701
8	6954147	1980	31.339160291721
8	7122356	2000	31.711700990256
9	144977	240	26.050474683544
9	171114	260	19.735854341737
9	198389	280	22.282608695652
9	225546	300	22.125943719973
9	252598	320	25.357456140351
9	280091	340	25.010524054983
9	307980	360	18.311758118701
9	335765	380	19.902057035998
9	363767	400	19.608734602464
9	392164	420	20.618311403509
9	421280	440	19.062171260257
9	450717	460	25.55797979798
9	480732	480	20.473069306931
9	511481	500	19.557852844108
9	542977	520	20.441941391941
9	575160	540	12.923626373626
9	608260	560	16.524069828954
9	641752	580	11.926467995063
9	676412	600	10.664797825348
9	711803	620	17.04553794829
9	748085	640	15.143953294412
9	786061	660	17.338574938575
9	824591	680	25.84820747521
9	864377	700	28.781943797547
9	905540	720	38.565980167811
9	948352	740	37.457559681698
9	992547	760	50.656308851224
9	1037598	780	60.35119047619
9	1084197	800	74.808076769292
9	1131335	820	58.266666666667
9	1180093	840	78.135483870968
9	1229525	860	70.074678730658
9	1279863	880	78.273472331498
9	1331647	900	85.571303587052
9	1384417	920	104.88456879845
9	1438829	940	115.32366412214
9	1494364	960	117.47322461254
9	1551369	980	119.32649806334
9	1610123	1000	130.79845218353
9	1670332	1020	125.82022219728
9	1731751	1040	151.7592039801
9	1794781	1060	158.88867102397
9	1858949	1080	178.34301280017
9	1925536	1100	199.2475177305
9	1994091	1120	215.41507663434
9	2063936	1140	218.70902007791
9	2135744	1160	227.74703768454
9	2209258	1180	248.64578544061
9	2285220	1200	274.46372224846
9	2362666	1220	292.60451029727
9	2441842	1240	318.77085080608
9	2523292	1260	326.73408307636
9	2605795	1280	358.14680089485
9	2691142	1300	356.6042384106
9	2778359	1320	381.14878877658
9	2868000	1340	409.44338341397
9	2959809	1360	443.32638544251
9	3053735	1380	450.74189412738
9	3149159	1400	481.40442639917
9	3248093	1420	480.29742854868
9	3348252	1440	525.19992236025
9	3450199	1460	565.06694271912
9	3555388	1480	559.98039802484
9	3662566	1500	573.28819392488
9	3772379	1520	600.80029563932
9	3885135	1540	651.52380952381
9	4000465	1560	665.54801112062
9	4117204	1580	670.94552732336
9	4236144	1600	685.41388792203
9	4357790	1620	715.35468476946
9	4482428	1640	731.1794897349
9	4608244	1660	720.12637034084
9	4736142	1680	734.79675324675
9	4865559	1700	744.32853896104
9	4997997	1720	768.21732152029
9	5133356	1740	790.45113301111
9	5270801	1760	803.02653147957
9	5411014	1780	823.48784002882
9	5553779	1800	809.24293181278
9	5699949	1820	849.63028629128
9	5847616	1840	881.09107817495
9	5997606	1860	869.85089989075
9	6150291	1880	903.27932643077
9	6305606	1900	924.10050125313
9	6463601	1920	915.02302150174
9	6625067	1940	959.73992835492
9	6788743	1960	966.61591261151
9	6954147	1980	982.14296779018
9	7122356	2000	1005.6319796954
10	144977	240	422.63831918024
10	171114	260	141.72715597876
10	198389	280	96.246759952907
10	225546	300	98.679262142842
10	252598	320	241.38920890404
10	280091	340	246.42742651124
10	307980	360	249.43261294299
10	335765	380	238.70658457048
10	363767	400	237.44992391932
10	392164	420	193.44855494368
10	421280	440	382.18809742373
10	450717	460	239.03036066614
10	480732	480	290.88600336007
10	511481	500	438.93994078014
10	542977	520	281.0584614959
10	575160	540	147.35044242311
10	608260	560	145.78863163309
10	641752	580	295.23105200093
10	676412	600	296.32480057457
10	711803	620	194.84136025957
10	748085	640	592.56106313939
10	786061	660	250.12402786276
10	824591	680	295.64672371935
10	864377	700	298.66055162174
10	905540	720	339.52131815508
10	948352	740	393.00750439873
10	992547	760	449.11339792772
10	1037598	780	594.16075532359
10	1084197	800	193.54690081661
10	1131335	820	388.73328228252
10	1180093	840	493.10895827547
10	1229525	860	342.54389454586
10	1279863	880	343.48492118846
10	1331647	900	351.47762074848
10	1384417	920	338.26857412618
10	1438829	940	430.34593758877
10	1494364	960	290.23226685859
10	1551369	980	387.77272160027
10	1610123	1000	479.53327180614
10	1670332	1020	348.32717911905
10	1731751	1040	345.51555173465
10	1794781	1060	397.4786803728
10	1858949	1080	552.46648792806
10	1925536	1100	250.20946862153
10	1994091	1120	504.22324203292
10	2063936	1140	436.62205613997
10	2135744	1160	288.13613940798
10	2209258	1180	348.08600609128
10	2285220	1200	489.81245098005
10	2362666	1220	441.25867012708
10	2441842	1240	302.60889857849
10	2523292	1260	201.47744599954
10	2605795	1280	349.90740561084
10	2691142	1300	300.84163995751
10	2778359	1320	295.12850177942
10	2868000	1340	440.58179416453
10	2959809	1360	555.99010260908
10	3053735	1380	345.79384681903
10	3149159	1400	449.63980614316
10	3248093	1420	404.56617988749
10	3348252	1440	507.26400857141
10	3450199	1460	454.7085481363
10	3555388	1480	498.34812501271
10	3662566	1500	547.54183032361
10	3772379	1520	408.13123815152
10	3885135	1540	457.67718850873
10	4000465	1560	609.82833410028
10	4117204	1580	596.46867825948
10	4236144	1600	394.64040595008
10	4357790	1620	519.59650689312
10	4482428	1640	316.1461325594
10	4608244	1660	696.25688059601
10	4736142	1680	203.52877105673
10	4865559	1700	304.05363432077
10	4997997	1720	457.65395714277
10	5133356	1740	536.47744517867
10	5270801	1760	495.89067305178
10	5411014	1780	510.19716100894
10	5553779	1800	150.788390656
10	5699949	1820	694.95874647626
10	5847616	1840	505.94332361726
10	5997606	1860	602.28128670269
10	6150291	1880	620.79162406797
10	6305606	1900	343.27492888745
10	6463601	1920	410.26781141441
10	6625067	1940	503.84745091333
10	6788743	1960	654.97006431502
10	6954147	1980	394.81112697586
10	7122356	2000	513.03067946917
11	144977	240	46.959813242248
11	171114	260	47.242385326255
11	198389	280	48.123379976453
11	225546	300	49.339631071421
11	252598	320	48.277841780808
11	280091	340	49.285485302247
11	307980	360	49.886522588598
11	335765	380	47.741316914096
11	363767	400	47.489984783863
11	392164	420	48.36213873592
11	421280	440	47.773512177966
11	450717	460	47.806072133228
11	480732	480	48.481000560012
11	511481	500	48.771104531127
11	542977	520	46.843076915984
11	575160	540	49.116814141038
11	608260	560	48.596210544363
11	641752	580	49.205175333489
11	676412	600	49.387466762428
11	711803	620	48.710340064893
11	748085	640	49.380088594949
11	786061	660	50.024805572552
11	824591	680	49.274453953225
11	864377	700	49.776758603623
11	905540	720	48.503045450726
11	948352	740	49.125938049841
11	992547	760	49.901488658636
11	1037598	780	49.513396276966
11	1084197	800	48.386725204152
11	1131335	820	48.591660285315
11	1180093	840	49.310895827547
11	1229525	860	48.934842077981
11	1279863	880	49.069274455494
11	1331647	900	50.211088678354
11	1384417	920	48.324082018025
11	1438829	940	47.816215287641
11	1494364	960	48.372044476432
11	1551369	980	48.471590200034
11	1610123	1000	47.953327180614
11	1670332	1020	49.761025588435
11	1731751	1040	49.359364533521
11	1794781	1060	49.684835046599
11	1858949	1080	50.224226175278
11	1925536	1100	50.041893724306
11	1994091	1120	50.422324203292
11	2063936	1140	48.51356179333
11	2135744	1160	48.02268990133
11	2209258	1180	49.726572298754
11	2285220	1200	48.981245098005
11	2362666	1220	49.028741125231
11	2441842	1240	50.434816429748
11	2523292	1260	50.369361499885
11	2605795	1280	49.986772230119
11	2691142	1300	50.140273326252
11	2778359	1320	49.188083629903
11	2868000	1340	48.953532684948
11	2959809	1360	50.544554782644
11	3053735	1380	49.399120974147
11	3149159	1400	49.959978460351
11	3248093	1420	50.570772485936
11	3348252	1440	50.726400857141
11	3450199	1460	50.523172015144
11	3555388	1480	49.834812501271
11	3662566	1500	49.776530029419
11	3772379	1520	51.01640476894
11	3885135	1540	50.853020945415
11	4000465	1560	50.81902784169
11	4117204	1580	49.70572318829
11	4236144	1600	49.33005074376
11	4357790	1620	51.959650689312
11	4482428	1640	52.691022093233
11	4608244	1660	49.732634328286
11	4736142	1680	50.882192764182
11	4865559	1700	50.675605720129
11	4997997	1720	50.85043968253
11	5133356	1740	48.770676834424
11	5270801	1760	49.589067305178
11	5411014	1780	51.019716100894
11	5553779	1800	50.262796885334
11	5699949	1820	49.63991046259
11	5847616	1840	50.594332361726
11	5997606	1860	50.190107225224
11	6150291	1880	51.732635338997
11	6305606	1900	49.039275555349
11	6463601	1920	51.283476426801
11	6625067	1940	50.384745091333
11	6788743	1960	50.382312639617
11	6954147	1980	49.351390871983
11	7122356	2000	51.303067946917
12	144977	240	0.87759911783625
12	171114	260	0.65184658645586
12	198389	280	2.0925500125083
12	225546	300	0.95174007169435
12	252598	320	2.0584512051976
12	280091	340	2.4000183479261
12	307980	360	2.2798078823571
12	335765	380	1.6596009276878
12	363767	400	1.810801196889
12	392164	420	1.0281687316432
12	421280	440	1.073728604933
12	450717	460	1.531899816597
12	480732	480	1.7928347340074
12	511481	500	2.2721419496231
12	542977	520	1.9017340709095
12	575160	540	0.72490189704644
12	608260	560	2.6166203533378
12	641752	580	2.1135170433249
12	676412	600	2.9968690344515
12	711803	620	4.0076379109568
12	748085	640	2.6319415203225
12	786061	660	2.1855868138584
12	824591	680	2.3401803357288
12	864377	700	3.2282885575373
12	905540	720	2.0595845787443