version 2
run statisticRVV-134-20150325-13:40:38-13308
attr c 15
attr configname statisticRVV
attr datetime 20150325-13:40:38
attr experiment statisticRVV
attr inifile omnetpp.ini
attr iterationvars "$sc=\"erlangen-medium.launchd.xml\", $p=1/15, $c=15"
attr iterationvars2 "$sc=\"erlangen-medium.launchd.xml\", $p=1/15, $c=15, $repetition=4"
attr measurement "$sc=\"erlangen-medium.launchd.xml\", $p=1/15, $c=15"
attr network RSUExampleScenario
attr p 1/15
attr processid 13308
attr repetition 4
attr replication #4
attr resultdir results
attr runnumber 134
attr sc "\"erlangen-medium.launchd.xml\""
attr seedset 134

vector 0  RSUExampleScenario.rsu[0].appl  Number_CH  ETV
vector 1  RSUExampleScenario.rsu[0].appl  Number_ON  ETV
vector 2  RSUExampleScenario.rsu[0].appl  Number_FN  ETV
vector 3  RSUExampleScenario.rsu[0].appl  Number_CH_Losts  ETV
vector 4  RSUExampleScenario.rsu[0].appl  Mean_Cluster_Size  ETV
vector 5  RSUExampleScenario.rsu[0].appl  StdDev_Cluster_Size  ETV
vector 6  RSUExampleScenario.rsu[0].appl  Variance_Cluster_Size  ETV
vector 7  RSUExampleScenario.rsu[0].appl  Mean_Neighbors  ETV
vector 8  RSUExampleScenario.rsu[0].appl  StdDev_Neighbors  ETV
vector 9  RSUExampleScenario.rsu[0].appl  Variance_Neighbors  ETV
vector 10  RSUExampleScenario.rsu[0].appl  Total_CH_Utility  ETV
vector 11  RSUExampleScenario.rsu[0].appl  Mean_CH_Utility  ETV
vector 12  RSUExampleScenario.rsu[0].appl  StdDev_CH_Utility  ETV
vector 13  RSUExampleScenario.rsu[0].appl  Variance_CH_Utility  ETV
vector 14  RSUExampleScenario.rsu[0].appl  Total_exp_CH_Utility  ETV
vector 15  RSUExampleScenario.rsu[0].appl  Mean_exp_CH_Utility  ETV
vector 16  RSUExampleScenario.rsu[0].appl  StdDev_exp_CH_Utility  ETV
vector 17  RSUExampleScenario.rsu[0].appl  Variance_exp_CH_Utility  ETV
vector 18  RSUExampleScenario.rsu[0].appl  Total_ON_Utility  ETV
vector 19  RSUExampleScenario.rsu[0].appl  Mean_ON_Utility  ETV
vector 20  RSUExampleScenario.rsu[0].appl  StdDev_ON_Utility  ETV
vector 21  RSUExampleScenario.rsu[0].appl  Variance_ON_Utility  ETV
vector 22  RSUExampleScenario.rsu[0].appl  Total_exp_ON_Utility  ETV
vector 23  RSUExampleScenario.rsu[0].appl  Mean_exp_ON_Utility  ETV
vector 24  RSUExampleScenario.rsu[0].appl  StdDev_exp_ON_Utility  ETV
vector 25  RSUExampleScenario.rsu[0].appl  Variance_exp_ON_Utility  ETV
0	145796	240	4
0	171636	260	5
0	198827	280	9
0	225919	300	5
0	253250	320	8
0	280506	340	7
0	307700	360	5
0	335138	380	5
0	362439	400	6
0	390117	420	9
0	418082	440	4
0	446820	460	6
0	476315	480	6
0	506228	500	3
0	536357	520	9
0	567690	540	7
0	599200	560	12
0	631052	580	8
0	664232	600	6
0	697593	620	3
0	731999	640	3
0	767744	660	6
0	804134	680	7
0	842401	700	5
0	881585	720	4
0	922114	740	5
0	964174	760	9
0	1006919	780	5
0	1050794	800	6
0	1095627	820	7
0	1141403	840	8
0	1188464	860	4
0	1236893	880	6
0	1286680	900	9
0	1337328	920	10
0	1389466	940	7
0	1443202	960	8
0	1498031	980	6
0	1554223	1000	8
0	1611457	1020	6
0	1670675	1040	6
0	1731308	1060	6
0	1793433	1080	7
0	1856558	1100	8
0	1922106	1120	7
0	1988834	1140	8
0	2057353	1160	9
0	2127820	1180	10
0	2199824	1200	10
0	2273887	1220	9
0	2349564	1240	8
0	2428214	1260	7
0	2508032	1280	8
0	2589981	1300	10
0	2673674	1320	10
0	2759799	1340	6
0	2848107	1360	10
0	2938963	1380	9
0	3031073	1400	14
0	3125416	1420	8
0	3221630	1440	10
0	3320655	1460	3
0	3421934	1480	10
0	3524993	1500	7
0	3630485	1520	10
0	3737684	1540	9
0	3847896	1560	9
0	3960277	1580	9
0	4075454	1600	10
0	4191822	1620	7
0	4311093	1640	10
0	4432300	1660	9
0	4555779	1680	13
0	4681490	1700	8
0	4809403	1720	8
0	4940441	1740	7
0	5073441	1760	14
0	5208882	1780	7
0	5347190	1800	7
0	5488163	1820	5
0	5630696	1840	9
0	5776314	1860	8
0	5924410	1880	10
0	6075018	1900	11
0	6228058	1920	7
0	6383774	1940	6
0	6541854	1960	11
0	6702022	1980	13
0	6864992	2000	12
1	145796	240	5
1	171636	260	9
1	198827	280	13
1	225919	300	6
1	253250	320	10
1	280506	340	10
1	307700	360	7
1	335138	380	10
1	362439	400	9
1	390117	420	12
1	418082	440	6
1	446820	460	8
1	476315	480	8
1	506228	500	3
1	536357	520	12
1	567690	540	10
1	599200	560	16
1	631052	580	10
1	664232	600	8
1	697593	620	4
1	731999	640	4
1	767744	660	6
1	804134	680	10
1	842401	700	5
1	881585	720	5
1	922114	740	6
1	964174	760	14
1	1006919	780	8
1	1050794	800	6
1	1095627	820	9
1	1141403	840	11
1	1188464	860	4
1	1236893	880	11
1	1286680	900	11
1	1337328	920	14
1	1389466	940	9
1	1443202	960	11
1	1498031	980	10
1	1554223	1000	13
1	1611457	1020	8
1	1670675	1040	9
1	1731308	1060	9
1	1793433	1080	9
1	1856558	1100	10
1	1922106	1120	10
1	1988834	1140	11
1	2057353	1160	14
1	2127820	1180	11
1	2199824	1200	12
1	2273887	1220	12
1	2349564	1240	14
1	2428214	1260	12
1	2508032	1280	10
1	2589981	1300	11
1	2673674	1320	14
1	2759799	1340	8
1	2848107	1360	15
1	2938963	1380	10
1	3031073	1400	19
1	3125416	1420	10
1	3221630	1440	15
1	3320655	1460	5
1	3421934	1480	12
1	3524993	1500	9
1	3630485	1520	17
1	3737684	1540	11
1	3847896	1560	10
1	3960277	1580	13
1	4075454	1600	14
1	4191822	1620	10
1	4311093	1640	15
1	4432300	1660	13
1	4555779	1680	18
1	4681490	1700	9
1	4809403	1720	12
1	4940441	1740	10
1	5073441	1760	19
1	5208882	1780	9
1	5347190	1800	12
1	5488163	1820	8
1	5630696	1840	13
1	5776314	1860	12
1	5924410	1880	14
1	6075018	1900	14
1	6228058	1920	10
1	6383774	1940	9
1	6541854	1960	18
1	6702022	1980	20
1	6864992	2000	15
2	145796	240	69
2	171636	260	71
2	198827	280	71
2	225919	300	82
2	253250	320	77
2	280506	340	77
2	307700	360	81
2	335138	380	80
2	362439	400	79
2	390117	420	73
2	418082	440	86
2	446820	460	86
2	476315	480	84
2	506228	500	94
2	536357	520	78
2	567690	540	88
2	599200	560	74
2	631052	580	86
2	664232	600	92
2	697593	620	101
2	731999	640	101
2	767744	660	98
2	804134	680	94
2	842401	700	102
2	881585	720	106
2	922114	740	104
2	964174	760	94
2	1006919	780	102
2	1050794	800	106
2	1095627	820	105
2	1141403	840	102
2	1188464	860	113
2	1236893	880	106
2	1286680	900	105
2	1337328	920	103
2	1389466	940	112
2	1443202	960	111
2	1498031	980	116
2	1554223	1000	109
2	1611457	1020	117
2	1670675	1040	119
2	1731308	1060	118
2	1793433	1080	122
2	1856558	1100	118
2	1922106	1120	122
2	1988834	1140	122
2	2057353	1160	119
2	2127820	1180	123
2	2199824	1200	123
2	2273887	1220	124
2	2349564	1240	124
2	2428214	1260	127
2	2508032	1280	129
2	2589981	1300	128
2	2673674	1320	126
2	2759799	1340	138
2	2848107	1360	131
2	2938963	1380	135
2	3031073	1400	121
2	3125416	1420	138
2	3221630	1440	134
2	3320655	1460	152
2	3421934	1480	140
2	3524993	1500	147
2	3630485	1520	138
2	3737684	1540	144
2	3847896	1560	147
2	3960277	1580	146
2	4075454	1600	146
2	4191822	1620	153
2	4311093	1640	147
2	4432300	1660	152
2	4555779	1680	143
2	4681490	1700	159
2	4809403	1720	156
2	4940441	1740	160
2	5073441	1760	146
2	5208882	1780	161
2	5347190	1800	162
2	5488163	1820	171
2	5630696	1840	162
2	5776314	1860	164
2	5924410	1880	159
2	6075018	1900	162
2	6228058	1920	171
2	6383774	1940	173
2	6541854	1960	162
2	6702022	1980	159
2	6864992	2000	166
3	145796	240	1
3	171636	260	0
3	198827	280	1
3	225919	300	2
3	253250	320	4
3	280506	340	2
3	307700	360	0
3	335138	380	2
3	362439	400	1
3	390117	420	1
3	418082	440	0
3	446820	460	3
3	476315	480	1
3	506228	500	3
3	536357	520	2
3	567690	540	3
3	599200	560	1
3	631052	580	4
3	664232	600	1
3	697593	620	0
3	731999	640	3
3	767744	660	0
3	804134	680	4
3	842401	700	1
3	881585	720	1
3	922114	740	1
3	964174	760	1
3	1006919	780	1
3	1050794	800	0
3	1095627	820	1
3	1141403	840	1
3	1188464	860	3
3	1236893	880	1
3	1286680	900	1
3	1337328	920	1
3	1389466	940	2
3	1443202	960	1
3	1498031	980	0
3	1554223	1000	2
3	1611457	1020	2
3	1670675	1040	1
3	1731308	1060	3
3	1793433	1080	1
3	1856558	1100	2
3	1922106	1120	4
3	1988834	1140	3
3	2057353	1160	3
3	2127820	1180	1
3	2199824	1200	1
3	2273887	1220	3
3	2349564	1240	2
3	2428214	1260	2
3	2508032	1280	4
3	2589981	1300	2
3	2673674	1320	3
3	2759799	1340	0
3	2848107	1360	3
3	2938963	1380	6
3	3031073	1400	1
3	3125416	1420	2
3	3221630	1440	0
3	3320655	1460	2
3	3421934	1480	2
3	3524993	1500	0
3	3630485	1520	3
3	3737684	1540	0
3	3847896	1560	0
3	3960277	1580	1
3	4075454	1600	1
3	4191822	1620	1
3	4311093	1640	1
3	4432300	1660	2
3	4555779	1680	2
3	4681490	1700	1
3	4809403	1720	3
3	4940441	1740	1
3	5073441	1760	1
3	5208882	1780	1
3	5347190	1800	2
3	5488163	1820	5
3	5630696	1840	2
3	5776314	1860	3
3	5924410	1880	2
3	6075018	1900	6
3	6228058	1920	0
3	6383774	1940	2
3	6541854	1960	2
3	6702022	1980	5
3	6864992	2000	1
4	145796	240	1.25
4	171636	260	1.8
4	198827	280	1.4444444444444
4	225919	300	1.2
4	253250	320	1.25
4	280506	340	1.4285714285714
4	307700	360	1.4
4	335138	380	2
4	362439	400	1.5
4	390117	420	1.3333333333333
4	418082	440	1.5
4	446820	460	1.3333333333333
4	476315	480	1.3333333333333
4	506228	500	1
4	536357	520	1.3333333333333
4	567690	540	1.4285714285714
4	599200	560	1.3333333333333
4	631052	580	1.25
4	664232	600	1.3333333333333
4	697593	620	1.3333333333333
4	731999	640	1.3333333333333
4	767744	660	1
4	804134	680	1.4285714285714
4	842401	700	1
4	881585	720	1.25
4	922114	740	1.2
4	964174	760	1.5555555555556
4	1006919	780	1.6
4	1050794	800	1
4	1095627	820	1.2857142857143
4	1141403	840	1.375
4	1188464	860	1
4	1236893	880	1.8333333333333
4	1286680	900	1.2222222222222
4	1337328	920	1.4
4	1389466	940	1.2857142857143
4	1443202	960	1.375
4	1498031	980	1.6666666666667
4	1554223	1000	1.625
4	1611457	1020	1.3333333333333
4	1670675	1040	1.5
4	1731308	1060	1.5
4	1793433	1080	1.2857142857143
4	1856558	1100	1.25
4	1922106	1120	1.4285714285714
4	1988834	1140	1.375
4	2057353	1160	1.5555555555556
4	2127820	1180	1.1
4	2199824	1200	1.2
4	2273887	1220	1.3333333333333
4	2349564	1240	1.75
4	2428214	1260	1.7142857142857
4	2508032	1280	1.25
4	2589981	1300	1.1
4	2673674	1320	1.4
4	2759799	1340	1.3333333333333
4	2848107	1360	1.5
4	2938963	1380	1.1111111111111
4	3031073	1400	1.3571428571429
4	3125416	1420	1.25
4	3221630	1440	1.5
4	3320655	1460	1.6666666666667
4	3421934	1480	1.2
4	3524993	1500	1.2857142857143
4	3630485	1520	1.7
4	3737684	1540	1.2222222222222
4	3847896	1560	1.1111111111111
4	3960277	1580	1.4444444444444
4	4075454	1600	1.4
4	4191822	1620	1.4285714285714
4	4311093	1640	1.5
4	4432300	1660	1.4444444444444
4	4555779	1680	1.3846153846154
4	4681490	1700	1.125
4	4809403	1720	1.5
4	4940441	1740	1.4285714285714
4	5073441	1760	1.3571428571429
4	5208882	1780	1.2857142857143
4	5347190	1800	1.7142857142857
4	5488163	1820	1.6
4	5630696	1840	1.4444444444444
4	5776314	1860	1.5
4	5924410	1880	1.4
4	6075018	1900	1.2727272727273
4	6228058	1920	1.4285714285714
4	6383774	1940	1.5
4	6541854	1960	1.6363636363636
4	6702022	1980	1.5384615384615
4	6864992	2000	1.25
5	145796	240	0.5
5	171636	260	0.83666002653408
5	198827	280	0.52704627669473
5	225919	300	0.44721359549996
5	253250	320	0.46291004988628
5	280506	340	0.53452248382485
5	307700	360	0.54772255750517
5	335138	380	0.70710678118655
5	362439	400	0.54772255750517
5	390117	420	0.5
5	418082	440	0.57735026918963
5	446820	460	0.51639777949432
5	476315	480	0.51639777949432
5	506228	500	0
5	536357	520	0.5
5	567690	540	0.53452248382485
5	599200	560	0.49236596391733
5	631052	580	0.46291004988628
5	664232	600	0.81649658092773
5	697593	620	0.57735026918963
5	731999	640	0.57735026918963
5	767744	660	0
5	804134	680	0.53452248382485
5	842401	700	0
5	881585	720	0.5
5	922114	740	0.44721359549996
5	964174	760	0.52704627669473
5	1006919	780	0.54772255750517
5	1050794	800	0
5	1095627	820	0.48795003647427
5	1141403	840	0.51754916950677
5	1188464	860	0
5	1236893	880	0.40824829046386
5	1286680	900	0.4409585518441
5	1337328	920	0.51639777949432
5	1389466	940	0.48795003647427
5	1443202	960	0.51754916950677
5	1498031	980	0.51639777949432
5	1554223	1000	0.51754916950677
5	1611457	1020	0.51639777949432
5	1670675	1040	0.54772255750517
5	1731308	1060	0.54772255750517
5	1793433	1080	0.48795003647427
5	1856558	1100	0.46291004988628
5	1922106	1120	0.53452248382485
5	1988834	1140	0.51754916950677
5	2057353	1160	0.52704627669473
5	2127820	1180	0.31622776601684
5	2199824	1200	0.42163702135578
5	2273887	1220	0.5
5	2349564	1240	0.46291004988628
5	2428214	1260	0.48795003647427
5	2508032	1280	0.46291004988628
5	2589981	1300	0.31622776601684
5	2673674	1320	0.51639777949432
5	2759799	1340	0.51639777949432
5	2848107	1360	0.52704627669473
5	2938963	1380	0.33333333333333
5	3031073	1400	0.49724515809885
5	3125416	1420	0.46291004988628
5	3221630	1440	0.52704627669473
5	3320655	1460	0.57735026918963
5	3421934	1480	0.42163702135578
5	3524993	1500	0.48795003647427
5	3630485	1520	0.67494855771055
5	3737684	1540	0.4409585518441
5	3847896	1560	0.33333333333333
5	3960277	1580	0.52704627669473
5	4075454	1600	0.51639777949432
5	4191822	1620	0.53452248382485
5	4311093	1640	0.52704627669473
5	4432300	1660	0.52704627669473
5	4555779	1680	0.50636968354183
5	4681490	1700	0.35355339059327
5	4809403	1720	0.53452248382485
5	4940441	1740	0.53452248382485
5	5073441	1760	0.49724515809885
5	5208882	1780	0.48795003647427
5	5347190	1800	0.75592894601845
5	5488163	1820	0.54772255750517
5	5630696	1840	0.52704627669473
5	5776314	1860	0.53452248382485
5	5924410	1880	0.51639777949432
5	6075018	1900	0.46709936649691
5	6228058	1920	0.53452248382485
5	6383774	1940	0.54772255750517
5	6541854	1960	0.50452497910951
5	6702022	1980	0.51887452166277
5	6864992	2000	0.45226701686665
6	145796	240	0.25
6	171636	260	0.7
6	198827	280	0.27777777777778
6	225919	300	0.2
6	253250	320	0.21428571428571
6	280506	340	0.28571428571429
6	307700	360	0.3
6	335138	380	0.5
6	362439	400	0.3
6	390117	420	0.25
6	418082	440	0.33333333333333
6	446820	460	0.26666666666667
6	476315	480	0.26666666666667
6	506228	500	0
6	536357	520	0.25
6	567690	540	0.28571428571429
6	599200	560	0.24242424242424
6	631052	580	0.21428571428571
6	664232	600	0.66666666666667
6	697593	620	0.33333333333333
6	731999	640	0.33333333333333
6	767744	660	0
6	804134	680	0.28571428571429
6	842401	700	0
6	881585	720	0.25
6	922114	740	0.2
6	964174	760	0.27777777777778
6	1006919	780	0.3
6	1050794	800	0
6	1095627	820	0.23809523809524
6	1141403	840	0.26785714285714
6	1188464	860	0
6	1236893	880	0.16666666666667
6	1286680	900	0.19444444444444
6	1337328	920	0.26666666666667
6	1389466	940	0.23809523809524
6	1443202	960	0.26785714285714
6	1498031	980	0.26666666666667
6	1554223	1000	0.26785714285714
6	1611457	1020	0.26666666666667
6	1670675	1040	0.3
6	1731308	1060	0.3
6	1793433	1080	0.23809523809524
6	1856558	1100	0.21428571428571
6	1922106	1120	0.28571428571429
6	1988834	1140	0.26785714285714
6	2057353	1160	0.27777777777778
6	2127820	1180	0.1
6	2199824	1200	0.17777777777778
6	2273887	1220	0.25
6	2349564	1240	0.21428571428571
6	2428214	1260	0.23809523809524
6	2508032	1280	0.21428571428571
6	2589981	1300	0.1
6	2673674	1320	0.26666666666667
6	2759799	1340	0.26666666666667
6	2848107	1360	0.27777777777778
6	2938963	1380	0.11111111111111
6	3031073	1400	0.24725274725275
6	3125416	1420	0.21428571428571
6	3221630	1440	0.27777777777778
6	3320655	1460	0.33333333333333
6	3421934	1480	0.17777777777778
6	3524993	1500	0.23809523809524
6	3630485	1520	0.45555555555556
6	3737684	1540	0.19444444444444
6	3847896	1560	0.11111111111111
6	3960277	1580	0.27777777777778
6	4075454	1600	0.26666666666667
6	4191822	1620	0.28571428571429
6	4311093	1640	0.27777777777778
6	4432300	1660	0.27777777777778
6	4555779	1680	0.25641025641026
6	4681490	1700	0.125
6	4809403	1720	0.28571428571429
6	4940441	1740	0.28571428571429
6	5073441	1760	0.24725274725275
6	5208882	1780	0.23809523809524
6	5347190	1800	0.57142857142857
6	5488163	1820	0.3
6	5630696	1840	0.27777777777778
6	5776314	1860	0.28571428571429
6	5924410	1880	0.26666666666667
6	6075018	1900	0.21818181818182
6	6228058	1920	0.28571428571429
6	6383774	1940	0.3
6	6541854	1960	0.25454545454545
6	6702022	1980	0.26923076923077
6	6864992	2000	0.20454545454545
7	145796	240	22.961538461538
7	171636	260	22.670588235294
7	198827	280	22.354838709677
7	225919	300	22.236559139785
7	253250	320	21.978947368421
7	280506	340	22.387096774194
7	307700	360	22.521739130435
7	335138	380	22.063157894737
7	362439	400	22.308510638298
7	390117	420	22.382978723404
7	418082	440	21.875
7	446820	460	21.86
7	476315	480	22.561224489796
7	506228	500	22.11
7	536357	520	22.938775510204
7	567690	540	22.615384615385
7	599200	560	22.843137254902
7	631052	580	22.865384615385
7	664232	600	23.160377358491
7	697593	620	23.111111111111
7	731999	640	23.842592592593
7	767744	660	24.311926605505
7	804134	680	24.558558558559
7	842401	700	25.267857142857
7	881585	720	26.254385964912
7	922114	740	26.421052631579
7	964174	760	27.290598290598
7	1006919	780	27.591304347826
7	1050794	800	27.881355932203
7	1095627	820	28.487603305785
7	1141403	840	28.322314049587
7	1188464	860	28.752066115702
7	1236893	880	29.131147540984
7	1286680	900	29.136
7	1337328	920	30.110236220472
7	1389466	940	30.21875
7	1443202	960	30.907692307692
7	1498031	980	31.545454545455
7	1554223	1000	31.496124031008
7	1611457	1020	31.984732824427
7	1670675	1040	32.134328358209
7	1731308	1060	33.225563909774
7	1793433	1080	33.065217391304
7	1856558	1100	33.823529411765
7	1922106	1120	34.841726618705
7	1988834	1140	35.376811594203
7	2057353	1160	35.408450704225
7	2127820	1180	35.916666666667
7	2199824	1200	36.855172413793
7	2273887	1220	37.655172413793
7	2349564	1240	38.458904109589
7	2428214	1260	39.369863013699
7	2508032	1280	40.224489795918
7	2589981	1300	40.765100671141
7	2673674	1320	40.893333333333
7	2759799	1340	41.815789473684
7	2848107	1360	42.322580645161
7	2938963	1380	43.266233766234
7	3031073	1400	44.402597402597
7	3125416	1420	44.602564102564
7	3221630	1440	45.081761006289
7	3320655	1460	45.875
7	3421934	1480	46.29012345679
7	3524993	1500	47.104294478528
7	3630485	1520	47.654545454545
7	3737684	1540	48.731707317073
7	3847896	1560	49.006024096386
7	3960277	1580	49.672619047619
7	4075454	1600	50.047058823529
7	4191822	1620	50.91124260355
7	4311093	1640	50.936046511628
7	4432300	1660	51.402298850575
7	4555779	1680	52.333333333333
7	4681490	1700	52.4375
7	4809403	1720	53.028409090909
7	4940441	1740	53.54802259887
7	5073441	1760	54.067039106145
7	5208882	1780	55.508474576271
7	5347190	1800	55.325966850829
7	5488163	1820	55.68306010929
7	5630696	1840	56.423913043478
7	5776314	1860	57.065217391304
7	5924410	1880	58.344262295082
7	6075018	1900	58.326203208556
7	6228058	1920	58.632978723404
7	6383774	1940	59.56914893617
7	6541854	1960	59.596858638743
7	6702022	1980	60.223958333333
7	6864992	2000	61.208333333333
8	145796	240	3.8794908880483
8	171636	260	4.5102746070292
8	198827	280	5.2100345515218
8	225919	300	4.312262216412
8	253250	320	4.6470739990363
8	280506	340	4.6812118880193
8	307700	360	3.8530087026981
8	335138	380	5.0881809781388
8	362439	400	4.0851859192097
8	390117	420	4.5722547624171
8	418082	440	4.786494157083
8	446820	460	5.3936363551238
8	476315	480	4.4072721687801
8	506228	500	4.4173555780614
8	536357	520	3.5313509769323
8	567690	540	3.8875147233703
8	599200	560	3.7699833180796
8	631052	580	3.1004468588288
8	664232	600	3.6072329256722
8	697593	620	3.9014335571201
8	731999	640	3.6072669050206
8	767744	660	3.3463558059101
8	804134	680	3.5819869668427
8	842401	700	4.3866754487791
8	881585	720	4.8221674770943
8	922114	740	5.4624943844237
8	964174	760	6.0927597351846
8	1006919	780	6.4453106197845
8	1050794	800	7.0434178420615
8	1095627	820	7.344063024511
8	1141403	840	7.6661755741624
8	1188464	860	8.0356300227337
8	1236893	880	7.4133571873996
8	1286680	900	8.7208907505983
8	1337328	920	9.0582141504024
8	1389466	940	9.043148970745
8	1443202	960	9.9318968998184
8	1498031	980	10.917709988586
8	1554223	1000	10.550565766086
8	1611457	1020	11.230442646817
8	1670675	1040	11.435856448181
8	1731308	1060	12.041353330108
8	1793433	1080	12.7027823389
8	1856558	1100	12.56207245991
8	1922106	1120	13.764193724343
8	1988834	1140	13.220865447864
8	2057353	1160	14.950582867538
8	2127820	1180	15.065590860369
8	2199824	1200	15.695885567715
8	2273887	1220	16.113908463716
8	2349564	1240	16.621185779654
8	2428214	1260	17.3602851155
8	2508032	1280	17.749704191387
8	2589981	1300	18.379405800818
8	2673674	1320	18.48385715676
8	2759799	1340	19.480137975167
8	2848107	1360	20.027557470448
8	2938963	1380	20.372364405596
8	3031073	1400	21.135887604815
8	3125416	1420	21.734669639788
8	3221630	1440	22.235781562368
8	3320655	1460	22.951891167747
8	3421934	1480	23.516792493391
8	3524993	1500	23.663174885064
8	3630485	1520	24.617972451595
8	3737684	1540	24.64473899755
8	3847896	1560	25.370108153746
8	3960277	1580	25.940627055291
8	4075454	1600	25.893457574153
8	4191822	1620	25.806245626354
8	4311093	1640	26.744217991454
8	4432300	1660	26.909593781016
8	4555779	1680	26.810474472225
8	4681490	1700	27.015266847787
8	4809403	1720	27.232633570201
8	4940441	1740	27.819409694074
8	5073441	1760	27.787232895169
8	5208882	1780	28.258771495057
8	5347190	1800	28.439777303766
8	5488163	1820	28.670697363119
8	5630696	1840	29.187816043162
8	5776314	1860	29.035423756842
8	5924410	1880	29.344983984145
8	6075018	1900	29.724098836397
8	6228058	1920	30.181418968843
8	6383774	1940	30.278219794503
8	6541854	1960	30.447708246243
8	6702022	1980	30.45977261242
8	6864992	2000	31.431606684647
9	145796	240	15.05044955045
9	171636	260	20.342577030812
9	198827	280	27.14446002805
9	225919	300	18.595605423095
9	253250	320	21.59529675252
9	280506	340	21.913744740533
9	307700	360	14.845676063067
9	335138	380	25.889585666293
9	362439	400	16.688743994509
9	390117	420	20.905513612446
9	418082	440	22.910526315789
9	446820	460	29.091313131313
9	476315	480	19.424047969703
9	506228	500	19.51303030303
9	536357	520	12.470439722281
9	567690	540	15.112770724421
9	599200	560	14.212774218598
9	631052	580	9.6127707244212
9	664232	600	13.012129380054
9	697593	620	15.221183800623
9	731999	640	13.012374524057
9	767744	660	11.198097179749
9	804134	680	12.830630630631
9	842401	700	19.242921492921
9	881585	720	23.253299177146
9	922114	740	29.83884489986
9	964174	760	37.121721190687
9	1006919	780	41.542028985507
9	1050794	800	49.60973489787
9	1095627	820	53.935261707989
9	1141403	840	58.770247933884
9	1188464	860	64.571349862259
9	1236893	880	54.957864787969
9	1286680	900	76.053935483871
9	1337328	920	82.051243594551
9	1389466	940	81.778543307087
9	1443202	960	98.642576028623
9	1498031	980	119.19639139486
9	1554223	1000	111.3144379845
9	1611457	1020	126.12284204345
9	1670675	1040	130.7788127034
9	1731308	1060	144.99419002051
9	1793433	1080	161.36067914948
9	1856558	1100	157.80566448802
9	1922106	1120	189.45302888124
9	1988834	1140	174.79128319052
9	2057353	1160	223.51992807911
9	2127820	1180	226.97202797203
9	2199824	1200	246.36082375479
9	2273887	1220	259.65804597701
9	2349564	1240	276.26381672178
9	2428214	1260	301.37949929145
9	2508032	1280	315.05199888174
9	2589981	1300	337.80255759115
9	2673674	1320	341.6529753915
9	2759799	1340	379.47577553154
9	2848107	1360	401.10305823209
9	2938963	1380	415.03323147441
9	3031073	1400	446.72574484339
9	3125416	1420	472.3958643507
9	3221630	1440	494.42998168936
9	3320655	1460	526.7893081761
9	3421934	1480	553.03952917721
9	3524993	1500	559.94584564114
9	3630485	1520	606.04456762749
9	3737684	1540	607.36316025737
9	3847896	1560	643.64238773275
9	3960277	1580	672.91613202167
9	4075454	1600	670.47114514445
9	4191822	1620	665.9623133277
9	4311093	1640	715.25319597443
9	4432300	1660	724.12623745931
9	4555779	1680	718.80154142582
9	4681490	1700	729.82464285714
9	4809403	1720	741.61633116883
9	4940441	1740	773.91955572676
9	5073441	1760	772.13031197037
9	5208882	1780	798.55816640986
9	5347190	1800	808.82093308778
9	5488163	1820	822.00888728758
9	5630696	1840	851.92860536945
9	5776314	1860	843.05583273937
9	5924410	1880	861.12808502972
9	6075018	1900	883.5220516359
9	6228058	1920	910.91805097281
9	6383774	1940	916.77059392422
9	6541854	1960	927.06293744833
9	6702022	1980	927.79774760035
9	6864992	2000	987.94589877836
10	145796	240	194.0388611735
10	171636	260	234.7977532869
10	198827	280	435.83839109155
10	225919	300	239.09423592798
10	253250	320	388.82751968933
10	280506	340	335.96063810998
10	307700	360	237.63688358696
10	335138	380	236.26677954769
10	362439	400	289.53162234825
10	390117	420	439.47419111116
10	418082	440	193.19232283814
10	446820	460	288.53951476844
10	476315	480	289.16857879853
10	506228	500	141.76823962057
10	536357	520	444.09679214811
10	567690	540	349.6468744017
10	599200	560	586.22777375144
10	631052	580	387.21486057951
10	664232	600	298.05842671671
10	697593	620	142.30626638484
10	731999	640	146.96551953347
10	767744	660	290.76774272565
10	804134	680	339.24627357465
10	842401	700	238.73115792186
10	881585	720	205.58142349609
10	922114	740	242.51290235438
10	964174	760	448.79522900283
10	1006919	780	256.51534037191
10	1050794	800	294.27309081642
10	1095627	820	338.14967652785
10	1141403	840	408.42889996045
10	1188464	860	200.10404045903
10	1236893	880	304.99050399819
10	1286680	900	437.203666115
10	1337328	920	489.75120788229
10	1389466	940	340.83844116837
10	1443202	960	388.43682160464
10	1498031	980	290.88445924783
10	1554223	1000	398.76660715615
10	1611457	1020	309.41737563016
10	1670675	1040	295.70539102691
10	1731308	1060	308.36429078633
10	1793433	1080	359.11090580661
10	1856558	1100	394.69390619981
10	1922106	1120	350.06092563596
10	1988834	1140	386.67413607701
10	2057353	1160	450.86431691552
10	2127820	1180	495.36404626886
10	2199824	1200	495.65400856943
10	2273887	1220	440.92159114914
10	2349564	1240	400.7152902363
10	2428214	1260	341.76572346031
10	2508032	1280	400.23875662103
10	2589981	1300	500.95028136853
10	2673674	1320	494.67266147752
10	2759799	1340	291.11552433157
10	2848107	1360	498.36022166197
10	2938963	1380	454.56484558056
10	3031073	1400	703.60265789605
10	3125416	1420	402.07165953859
10	3221630	1440	498.73873661225
10	3320655	1460	154.31794125566
10	3421934	1480	499.49204569781
10	3524993	1500	354.53153817791
10	3630485	1520	496.69739709506
10	3737684	1540	449.76989117054
10	3847896	1560	451.16607696047
10	3960277	1580	455.19444956843
10	4075454	1600	509.46006534481
10	4191822	1620	346.01815077812
10	4311093	1640	488.5198728134
10	4432300	1660	452.99439964043
10	4555779	1680	658.56907082319
10	4681490	1700	395.08487798156
10	4809403	1720	408.84427366719
10	4940441	1740	354.31974441776
10	5073441	1760	709.75873169136
10	5208882	1780	353.67866379557
10	5347190	1800	351.38914758294
10	5488163	1820	245.12882729046
10	5630696	1840	455.76071316701
10	5776314	1860	411.09245050777
10	5924410	1880	512.45176064247
10	6075018	1900	561.07572124034
10	6228058	1920	357.29446093021
10	6383774	1940	300.99475395471
10	6541854	1960	550.44564207244
10	6702022	1980	650.05829478676
10	6864992	2000	610.84180673812
11	145796	240	48.509715293376
11	171636	260	46.959550657381
11	198827	280	48.426487899061
11	225919	300	47.818847185597
11	253250	320	48.603439961167
11	280506	340	47.994376872855
11	307700	360	47.527376717392
11	335138	380	47.253355909538
11	362439	400	48.255270391375
11	390117	420	48.830465679017
11	418082	440	48.298080709535
11	446820	460	48.089919128073
11	476315	480	48.194763133088
11	506228	500	47.256079873522
11	536357	520	49.344088016457
11	567690	540	49.949553485957
11	599200	560	48.852314479287
11	631052	580	48.401857572439
11	664232	600	49.676404452785
11	697593	620	47.43542212828
11	731999	640	48.988506511158
11	767744	660	48.461290454274
11	804134	680	48.463753367807
11	842401	700	47.746231584372
11	881585	720	51.395355874022
11	922114	740	48.502580470876
11	964174	760	49.86613655587
11	1006919	780	51.303068074383
11	1050794	800	49.04551513607
11	1095627	820	48.307096646835
11	1141403	840	51.053612495056
11	1188464	860	50.026010114757
11	1236893	880	50.831750666366
11	1286680	900	48.578185123889
11	1337328	920	48.975120788229
11	1389466	940	48.691205881196
11	1443202	960	48.554602700579
11	1498031	980	48.480743207972
11	1554223	1000	49.845825894519
11	1611457	1020	51.569562605027
11	1670675	1040	49.284231837818
11	1731308	1060	51.394048464388
11	1793433	1080	51.301557972374
11	1856558	1100	49.336738274977
11	1922106	1120	50.00870366228
11	1988834	1140	48.334267009627
11	2057353	1160	50.096035212836
11	2127820	1180	49.536404626886
11	2199824	1200	49.565400856943
11	2273887	1220	48.99128790546
11	2349564	1240	50.089411279538
11	2428214	1260	48.823674780045
11	2508032	1280	50.029844577629
11	2589981	1300	50.095028136853
11	2673674	1320	49.467266147752
11	2759799	1340	48.519254055261
11	2848107	1360	49.836022166197
11	2938963	1380	50.507205064507
11	3031073	1400	50.257332706861
11	3125416	1420	50.258957442324
11	3221630	1440	49.873873661225
11	3320655	1460	51.439313751886
11	3421934	1480	49.949204569781
11	3524993	1500	50.647362596845
11	3630485	1520	49.669739709506
11	3737684	1540	49.974432352282
11	3847896	1560	50.129564106719
11	3960277	1580	50.577161063158
11	4075454	1600	50.946006534481
11	4191822	1620	49.431164396875
11	4311093	1640	48.85198728134
11	4432300	1660	50.332711071159
11	4555779	1680	50.659159294091
11	4681490	1700	49.385609747695
11	4809403	1720	51.105534208399
11	4940441	1740	50.617106345394
11	5073441	1760	50.697052263668
11	5208882	1780	50.525523399367
11	5347190	1800	50.198449654706
11	5488163	1820	49.025765458092
11	5630696	1840	50.640079240778
11	5776314	1860	51.386556313471
11	5924410	1880	51.245176064247
11	6075018	1900	51.006883749122
11	6228058	1920	51.042065847173
11	6383774	1940	50.165792325785
11	6541854	1960	50.040512915676
11	6702022	1980	50.004484214366
11	6864992	2000	50.903483894844
12	145796	240	2.7863444526042
12	171636	260	1.0796917150957
12	198827	280	1.5106390231665
12	225919	300	0.53720601283069
12	253250	320	0.92539914771135
12	280506	340	1.7553723317371
12	307700	360	1.7134638439259
12	335138	380	0.78029340668351
12	362439	400	1.6308620537121
12	390117	420	3.0312440042225
12	418082	440	1.7170576513066
12	446820	460	1.1057774375244
12	476315	480	1.190878007881
12	506228	500	1.2682097699314
12	536357	520	2.4212111637987
12	567690	540	4.4176043294677
12	599200	560	1.841940120241
12	631052	580	2.2574760374793
12	664232	600	2.5032902167278
12	697593	620	1.0278610507822
12	731999	640	1.8727672955906
12	767744	660	2.9602304859457
12	804134	680	1.8717075477359
12	842401	700	1.6643612486367
12	881585	720	3.5882267751885
12	922114	740	1.6240841728603
12	964174	760	2.5773022264933