version 2
run statisticRVV-115-20150327-05:21:22-15964
attr c 6
attr configname statisticRVV
attr datetime 20150327-05:21:22
attr experiment statisticRVV
attr inifile omnetpp.ini
attr iterationvars "$sc=\"erlangen-low.launchd.xml\", $p=1/5, $c=6"
attr iterationvars2 "$sc=\"erlangen-low.launchd.xml\", $p=1/5, $c=6, $repetition=5"
attr measurement "$sc=\"erlangen-low.launchd.xml\", $p=1/5, $c=6"
attr network RSUExampleScenario
attr p 1/5
attr processid 15964
attr repetition 5
attr replication #5
attr resultdir results
attr runnumber 115
attr sc "\"erlangen-low.launchd.xml\""
attr seedset 115

vector 0  RSUExampleScenario.rsu[0].appl  Number_CH  ETV
vector 1  RSUExampleScenario.rsu[0].appl  Number_ON  ETV
vector 2  RSUExampleScenario.rsu[0].appl  Number_FN  ETV
vector 3  RSUExampleScenario.rsu[0].appl  Number_CH_Losts  ETV
vector 4  RSUExampleScenario.rsu[0].appl  Number_CH_Losts  ETV
vector 5  RSUExampleScenario.rsu[0].appl  Mean_Cluster_Size  ETV
vector 6  RSUExampleScenario.rsu[0].appl  StdDev_Cluster_Size  ETV
vector 7  RSUExampleScenario.rsu[0].appl  Variance_Cluster_Size  ETV
vector 8  RSUExampleScenario.rsu[0].appl  Mean_Neighbors  ETV
vector 9  RSUExampleScenario.rsu[0].appl  StdDev_Neighbors  ETV
vector 10  RSUExampleScenario.rsu[0].appl  Variance_Neighbors  ETV
vector 11  RSUExampleScenario.rsu[0].appl  Total_CH_Utility  ETV
vector 12  RSUExampleScenario.rsu[0].appl  Mean_CH_Utility  ETV
vector 13  RSUExampleScenario.rsu[0].appl  StdDev_CH_Utility  ETV
vector 14  RSUExampleScenario.rsu[0].appl  Variance_CH_Utility  ETV
vector 15  RSUExampleScenario.rsu[0].appl  Total_exp_CH_Utility  ETV
vector 16  RSUExampleScenario.rsu[0].appl  Mean_exp_CH_Utility  ETV
vector 17  RSUExampleScenario.rsu[0].appl  StdDev_exp_CH_Utility  ETV
vector 18  RSUExampleScenario.rsu[0].appl  Variance_exp_CH_Utility  ETV
vector 19  RSUExampleScenario.rsu[0].appl  Total_ON_Utility  ETV
vector 20  RSUExampleScenario.rsu[0].appl  Mean_ON_Utility  ETV
vector 21  RSUExampleScenario.rsu[0].appl  StdDev_ON_Utility  ETV
vector 22  RSUExampleScenario.rsu[0].appl  Variance_ON_Utility  ETV
vector 23  RSUExampleScenario.rsu[0].appl  Total_exp_ON_Utility  ETV
vector 24  RSUExampleScenario.rsu[0].appl  Mean_exp_ON_Utility  ETV
vector 25  RSUExampleScenario.rsu[0].appl  StdDev_exp_ON_Utility  ETV
vector 26  RSUExampleScenario.rsu[0].appl  Variance_exp_ON_Utility  ETV
0	34725	240	9
0	40009	260	10
0	45323	280	9
0	50569	300	10
0	55865	320	9
0	61168	340	6
0	66524	360	8
0	71798	380	5
0	77215	400	10
0	82532	420	9
0	87782	440	8
0	93139	460	5
0	98433	480	9
0	103741	500	8
0	109077	520	4
0	114388	540	7
0	119694	560	12
0	124968	580	7
0	130240	600	10
0	135516	620	9
0	140782	640	8
0	146156	660	4
0	151456	680	10
0	156756	700	9
0	161995	720	5
0	167224	740	8
0	172630	760	5
0	177888	780	8
0	183235	800	4
0	188604	820	7
0	193949	840	7
0	199250	860	9
0	204599	880	8
0	209865	900	6
0	215192	920	9
0	220553	940	10
0	225867	960	10
0	231141	980	10
0	236474	1000	6
0	241825	1020	8
0	247143	1040	9
0	252466	1060	8
0	257760	1080	7
0	263203	1100	5
0	268564	1120	7
0	273893	1140	6
0	279193	1160	6
0	284569	1180	8
0	289892	1200	9
0	295230	1220	6
0	300483	1240	6
0	305680	1260	10
0	310946	1280	8
0	316366	1300	5
0	321567	1320	7
0	326836	1340	3
0	332180	1360	9
0	337592	1380	9
0	342990	1400	8
0	348276	1420	6
0	353595	1440	8
0	358893	1460	5
0	364129	1480	8
0	369442	1500	9
0	374788	1520	7
0	380222	1540	7
0	385483	1560	8
0	390834	1580	7
0	396072	1600	8
0	401409	1620	6
0	406604	1640	5
0	411941	1660	5
0	417237	1680	9
0	422615	1700	6
0	427886	1720	5
0	433176	1740	7
0	438462	1760	4
0	443797	1780	6
0	449003	1800	5
0	453867	1820	9
0	458116	1840	7
0	461914	1860	5
0	465271	1880	4
0	468154	1900	2
0	470692	1920	5
0	472643	1940	3
0	474221	1960	4
0	475290	1980	3
0	475870	2000	1
1	34725	240	26
1	40009	260	24
1	45323	280	25
1	50569	300	28
1	55865	320	22
1	61168	340	21
1	66524	360	28
1	71798	380	20
1	77215	400	25
1	82532	420	28
1	87782	440	25
1	93139	460	22
1	98433	480	28
1	103741	500	25
1	109077	520	21
1	114388	540	25
1	119694	560	28
1	124968	580	24
1	130240	600	25
1	135516	620	27
1	140782	640	28
1	146156	660	19
1	151456	680	28
1	156756	700	28
1	161995	720	24
1	167224	740	26
1	172630	760	29
1	177888	780	25
1	183235	800	20
1	188604	820	24
1	193949	840	26
1	199250	860	21
1	204599	880	31
1	209865	900	27
1	215192	920	28
1	220553	940	29
1	225867	960	25
1	231141	980	27
1	236474	1000	24
1	241825	1020	23
1	247143	1040	30
1	252466	1060	21
1	257760	1080	29
1	263203	1100	25
1	268564	1120	29
1	273893	1140	24
1	279193	1160	26
1	284569	1180	23
1	289892	1200	30
1	295230	1220	25
1	300483	1240	21
1	305680	1260	28
1	310946	1280	25
1	316366	1300	23
1	321567	1320	25
1	326836	1340	15
1	332180	1360	26
1	337592	1380	20
1	342990	1400	27
1	348276	1420	24
1	353595	1440	23
1	358893	1460	20
1	364129	1480	22
1	369442	1500	23
1	374788	1520	20
1	380222	1540	26
1	385483	1560	30
1	390834	1580	27
1	396072	1600	31
1	401409	1620	26
1	406604	1640	20
1	411941	1660	18
1	417237	1680	30
1	422615	1700	23
1	427886	1720	26
1	433176	1740	19
1	438462	1760	20
1	443797	1780	28
1	449003	1800	23
1	453867	1820	23
1	458116	1840	20
1	461914	1860	19
1	465271	1880	13
1	468154	1900	12
1	470692	1920	15
1	472643	1940	11
1	474221	1960	7
1	475290	1980	7
1	475870	2000	3
2	34725	240	5
2	40009	260	7
2	45323	280	5
2	50569	300	2
2	55865	320	10
2	61168	340	14
2	66524	360	5
2	71798	380	16
2	77215	400	6
2	82532	420	3
2	87782	440	7
2	93139	460	13
2	98433	480	4
2	103741	500	8
2	109077	520	15
2	114388	540	8
2	119694	560	1
2	124968	580	9
2	130240	600	5
2	135516	620	3
2	140782	640	4
2	146156	660	18
2	151456	680	3
2	156756	700	3
2	161995	720	10
2	167224	740	6
2	172630	760	7
2	177888	780	7
2	183235	800	17
2	188604	820	8
2	193949	840	6
2	199250	860	9
2	204599	880	1
2	209865	900	8
2	215192	920	4
2	220553	940	2
2	225867	960	5
2	231141	980	3
2	236474	1000	11
2	241825	1020	9
2	247143	1040	1
2	252466	1060	11
2	257760	1080	4
2	263203	1100	12
2	268564	1120	5
2	273893	1140	10
2	279193	1160	8
2	284569	1180	10
2	289892	1200	1
2	295230	1220	10
2	300483	1240	14
2	305680	1260	2
2	310946	1280	6
2	316366	1300	12
2	321567	1320	9
2	326836	1340	22
2	332180	1360	6
2	337592	1380	11
2	342990	1400	6
2	348276	1420	11
2	353595	1440	9
2	358893	1460	16
2	364129	1480	10
2	369442	1500	8
2	374788	1520	13
2	380222	1540	8
2	385483	1560	3
2	390834	1580	6
2	396072	1600	2
2	401409	1620	9
2	406604	1640	14
2	411941	1660	17
2	417237	1680	1
2	422615	1700	13
2	427886	1720	8
2	433176	1740	15
2	438462	1760	16
2	443797	1780	6
2	449003	1800	12
2	453867	1820	5
2	458116	1840	6
2	461914	1860	7
2	465271	1880	10
2	468154	1900	9
2	470692	1920	1
2	472643	1940	3
2	474221	1960	3
2	475290	1980	1
2	475870	2000	3
3	34725	240	3
3	40009	260	3
3	45323	280	1
3	50569	300	1
3	55865	320	0
3	61168	340	2
3	66524	360	2
3	71798	380	1
3	77215	400	4
3	82532	420	1
3	87782	440	0
3	93139	460	0
3	98433	480	0
3	103741	500	1
3	109077	520	0
3	114388	540	0
3	119694	560	0
3	124968	580	0
3	130240	600	2
3	135516	620	1
3	140782	640	0
3	146156	660	1
3	151456	680	2
3	156756	700	3
3	161995	720	2
3	167224	740	1
3	172630	760	1
3	177888	780	0
3	183235	800	1
3	188604	820	3
3	193949	840	0
3	199250	860	0
3	204599	880	1
3	209865	900	0
3	215192	920	0
3	220553	940	0
3	225867	960	4
3	231141	980	2
3	236474	1000	1
3	241825	1020	3
3	247143	1040	0
3	252466	1060	0
3	257760	1080	1
3	263203	1100	0
3	268564	1120	0
3	273893	1140	0
3	279193	1160	0
3	284569	1180	1
3	289892	1200	0
3	295230	1220	0
3	300483	1240	2
3	305680	1260	1
3	310946	1280	0
3	316366	1300	0
3	321567	1320	1
3	326836	1340	0
3	332180	1360	4
3	337592	1380	1
3	342990	1400	0
3	348276	1420	1
3	353595	1440	1
3	358893	1460	0
3	364129	1480	0
3	369442	1500	4
3	374788	1520	3
3	380222	1540	3
3	385483	1560	0
3	390834	1580	1
3	396072	1600	1
3	401409	1620	0
3	406604	1640	1
3	411941	1660	0
3	417237	1680	0
3	422615	1700	0
3	427886	1720	1
3	433176	1740	2
3	438462	1760	0
3	443797	1780	1
3	449003	1800	0
3	453867	1820	1
3	458116	1840	0
3	461914	1860	1
3	465271	1880	1
3	468154	1900	0
3	470692	1920	0
3	472643	1940	0
3	474221	1960	0
3	475290	1980	0
3	475870	2000	1
4	34725	240	2
4	40009	260	4
4	45323	280	4
4	50569	300	1
4	55865	320	10
4	61168	340	12
4	66524	360	3
4	71798	380	15
4	77215	400	1
4	82532	420	2
4	87782	440	7
4	93139	460	13
4	98433	480	3
4	103741	500	6
4	109077	520	15
4	114388	540	8
4	119694	560	1
4	124968	580	9
4	130240	600	3
4	135516	620	2
4	140782	640	4
4	146156	660	16
4	151456	680	1
4	156756	700	0
4	161995	720	8
4	167224	740	5
4	172630	760	6
4	177888	780	7
4	183235	800	16
4	188604	820	5
4	193949	840	6
4	199250	860	9
4	204599	880	0
4	209865	900	8
4	215192	920	3
4	220553	940	2
4	225867	960	1
4	231141	980	1
4	236474	1000	10
4	241825	1020	6
4	247143	1040	1
4	252466	1060	11
4	257760	1080	3
4	263203	1100	11
4	268564	1120	5
4	273893	1140	10
4	279193	1160	8
4	284569	1180	9
4	289892	1200	1
4	295230	1220	10
4	300483	1240	12
4	305680	1260	1
4	310946	1280	6
4	316366	1300	12
4	321567	1320	8
4	326836	1340	22
4	332180	1360	2
4	337592	1380	10
4	342990	1400	6
4	348276	1420	10
4	353595	1440	7
4	358893	1460	16
4	364129	1480	10
4	369442	1500	4
4	374788	1520	10
4	380222	1540	5
4	385483	1560	2
4	390834	1580	5
4	396072	1600	1
4	401409	1620	9
4	406604	1640	13
4	411941	1660	17
4	417237	1680	1
4	422615	1700	12
4	427886	1720	7
4	433176	1740	13
4	438462	1760	16
4	443797	1780	5
4	449003	1800	12
4	453867	1820	4
4	458116	1840	6
4	461914	1860	6
4	465271	1880	9
4	468154	1900	9
4	470692	1920	1
4	472643	1940	3
4	474221	1960	3
4	475290	1980	1
4	475870	2000	2
5	34725	240	2.8888888888889
5	40009	260	2.4
5	45323	280	2.7777777777778
5	50569	300	2.8
5	55865	320	2.4444444444444
5	61168	340	3.5
5	66524	360	3.5
5	71798	380	4
5	77215	400	2.5
5	82532	420	3.1111111111111
5	87782	440	3.125
5	93139	460	4.4
5	98433	480	3.1111111111111
5	103741	500	3.125
5	109077	520	5.25
5	114388	540	3.5714285714286
5	119694	560	2.3333333333333
5	124968	580	3.4285714285714
5	130240	600	2.5
5	135516	620	3
5	140782	640	3.5
5	146156	660	4.75
5	151456	680	2.8
5	156756	700	3.1111111111111
5	161995	720	4.8
5	167224	740	3.25
5	172630	760	5.8
5	177888	780	3.125
5	183235	800	5
5	188604	820	3.4285714285714
5	193949	840	3.7142857142857
5	199250	860	2.3333333333333
5	204599	880	3.875
5	209865	900	4.5
5	215192	920	3.1111111111111
5	220553	940	2.9
5	225867	960	2.5
5	231141	980	2.7
5	236474	1000	4
5	241825	1020	2.875
5	247143	1040	3.3333333333333
5	252466	1060	2.625
5	257760	1080	4.1428571428571
5	263203	1100	5
5	268564	1120	4.1428571428571
5	273893	1140	4
5	279193	1160	4.3333333333333
5	284569	1180	2.875
5	289892	1200	3.3333333333333
5	295230	1220	4.1666666666667
5	300483	1240	3.5
5	305680	1260	2.8
5	310946	1280	3.125
5	316366	1300	4.6
5	321567	1320	3.5714285714286
5	326836	1340	5
5	332180	1360	2.8888888888889
5	337592	1380	2.2222222222222
5	342990	1400	3.375
5	348276	1420	4
5	353595	1440	2.875
5	358893	1460	4
5	364129	1480	2.75
5	369442	1500	2.5555555555556
5	374788	1520	2.8571428571429
5	380222	1540	3.7142857142857
5	385483	1560	3.75
5	390834	1580	3.8571428571429
5	396072	1600	3.875
5	401409	1620	4.3333333333333
5	406604	1640	4
5	411941	1660	3.6
5	417237	1680	3.3333333333333
5	422615	1700	3.8333333333333
5	427886	1720	5.2
5	433176	1740	2.7142857142857
5	438462	1760	5
5	443797	1780	4.6666666666667
5	449003	1800	4.6
5	453867	1820	2.5555555555556
5	458116	1840	2.8571428571429
5	461914	1860	3.8
5	465271	1880	3.25
5	468154	1900	6
5	470692	1920	3
5	472643	1940	3.6666666666667
5	474221	1960	1.75
5	475290	1980	2.3333333333333
5	475870	2000	3
6	34725	240	1.4529663145136
6	40009	260	0.9660917830793
6	45323	280	1.3944333775568
6	50569	300	1.3984117975602
6	55865	320	1.3333333333333
6	61168	340	1.378404875209
6	66524	360	1.690308509457
6	71798	380	2.1213203435596
6	77215	400	1.3540064007727
6	82532	420	1.3642254619787
6	87782	440	1.6420805617961
6	93139	460	2.0736441353328
6	98433	480	1.6158932858054
6	103741	500	2.167124493754
6	109077	520	0.95742710775634
6	114388	540	1.5118578920369
6	119694	560	1.4974726182553
6	124968	580	1.9023794624227
6	130240	600	1.5092308563562
6	135516	620	2
6	140782	640	1.8516401995451
6	146156	660	1.2583057392118
6	151456	680	1.4757295747452
6	156756	700	1.6158932858054
6	161995	720	1.7888543819998
6	167224	740	1.1649647450214
6	172630	760	0.44721359549996
6	177888	780	1.5526475085203
6	183235	800	0.81649658092773
6	188604	820	1.3972762620115
6	193949	840	1.253566341056
6	199250	860	1.7320508075689
6	204599	880	1.5526475085203
6	209865	900	1.870828693387
6	215192	920	1.6914819275154
6	220553	940	1.6633299933166
6	225867	960	1.5811388300842
6	231141	980	1.7669811040931
6	236474	1000	1.897366596101
6	241825	1020	1.7268882005338
6	247143	1040	1.7320508075689
6	252466	1060	1.3024701806293
6	257760	1080	1.2149857925879
6	263203	1100	1.7320508075689
6	268564	1120	1.0690449676497
6	273893	1140	1.2649110640674
6	279193	1160	1.6329931618555
6	284569	1180	1.4577379737113
6	289892	1200	1.7320508075689
6	295230	1220	1.3291601358251
6	300483	1240	2.0736441353328
6	305680	1260	0.91893658347268
6	310946	1280	1.3562026818605
6	316366	1300	1.3416407864999
6	321567	1320	1.9023794624227
6	326836	1340	1
6	332180	1360	1.7638342073764
6	337592	1380	1.2018504251547
6	342990	1400	1.5059406173077
6	348276	1420	1.897366596101
6	353595	1440	1.9594095320493
6	358893	1460	1.2247448713916
6	364129	1480	2.2519832529192
6	369442	1500	1.8104634152
6	374788	1520	1.9518001458971
6	380222	1540	2.0586634591636
6	385483	1560	1.6690459207926
6	390834	1580	1.6761634196951
6	396072	1600	1.4577379737113
6	401409	1620	1.6329931618555
6	406604	1640	1.4142135623731
6	411941	1660	2.0736441353328
6	417237	1680	1.5811388300842
6	422615	1700	1.7224014243685
6	427886	1720	0.83666002653408
6	433176	1740	1.6035674514745
6	438462	1760	1.4142135623731
6	443797	1780	1.7511900715418
6	449003	1800	1.5165750888103
6	453867	1820	1.5898986690282
6	458116	1840	1.7728105208558
6	461914	1860	1.6431676725155
6	465271	1880	1.2583057392118
6	468154	1900	0
6	470692	1920	0.70710678118655
6	472643	1940	0.57735026918963
6	474221	1960	0.95742710775634
6	475290	1980	1.5275252316519
6	475870	2000	nan
7	34725	240	2.1111111111111
7	40009	260	0.93333333333333
7	45323	280	1.9444444444444
7	50569	300	1.9555555555556
7	55865	320	1.7777777777778
7	61168	340	1.9
7	66524	360	2.8571428571429
7	71798	380	4.5
7	77215	400	1.8333333333333
7	82532	420	1.8611111111111
7	87782	440	2.6964285714286
7	93139	460	4.3
7	98433	480	2.6111111111111
7	103741	500	4.6964285714286
7	109077	520	0.91666666666667
7	114388	540	2.2857142857143
7	119694	560	2.2424242424242
7	124968	580	3.6190476190476
7	130240	600	2.2777777777778
7	135516	620	4
7	140782	640	3.4285714285714
7	146156	660	1.5833333333333
7	151456	680	2.1777777777778
7	156756	700	2.6111111111111
7	161995	720	3.2
7	167224	740	1.3571428571429
7	172630	760	0.2
7	177888	780	2.4107142857143
7	183235	800	0.66666666666667
7	188604	820	1.952380952381
7	193949	840	1.5714285714286
7	199250	860	3
7	204599	880	2.4107142857143
7	209865	900	3.5
7	215192	920	2.8611111111111
7	220553	940	2.7666666666667
7	225867	960	2.5
7	231141	980	3.1222222222222
7	236474	1000	3.6
7	241825	1020	2.9821428571429
7	247143	1040	3
7	252466	1060	1.6964285714286
7	257760	1080	1.4761904761905
7	263203	1100	3
7	268564	1120	1.1428571428571
7	273893	1140	1.6
7	279193	1160	2.6666666666667
7	284569	1180	2.125
7	289892	1200	3
7	295230	1220	1.7666666666667
7	300483	1240	4.3
7	305680	1260	0.84444444444444
7	310946	1280	1.8392857142857
7	316366	1300	1.8
7	321567	1320	3.6190476190476
7	326836	1340	1
7	332180	1360	3.1111111111111
7	337592	1380	1.4444444444444
7	342990	1400	2.2678571428571
7	348276	1420	3.6
7	353595	1440	3.8392857142857
7	358893	1460	1.5
7	364129	1480	5.0714285714286
7	369442	1500	3.2777777777778
7	374788	1520	3.8095238095238
7	380222	1540	4.2380952380952
7	385483	1560	2.7857142857143
7	390834	1580	2.8095238095238
7	396072	1600	2.125
7	401409	1620	2.6666666666667
7	406604	1640	2
7	411941	1660	4.3
7	417237	1680	2.5
7	422615	1700	2.9666666666667
7	427886	1720	0.7
7	433176	1740	2.5714285714286
7	438462	1760	2
7	443797	1780	3.0666666666667
7	449003	1800	2.3
7	453867	1820	2.5277777777778
7	458116	1840	3.1428571428571
7	461914	1860	2.7
7	465271	1880	1.5833333333333
7	468154	1900	0
7	470692	1920	0.5
7	472643	1940	0.33333333333333
7	474221	1960	0.91666666666667
7	475290	1980	2.3333333333333
7	475870	2000	nan
8	34725	240	8.8
8	40009	260	8.8536585365854
8	45323	280	8.8717948717949
8	50569	300	9.125
8	55865	320	8.8292682926829
8	61168	340	8.780487804878
8	66524	360	8.9268292682927
8	71798	380	8.8292682926829
8	77215	400	9.025
8	82532	420	8.775
8	87782	440	9
8	93139	460	9.075
8	98433	480	9.025
8	103741	500	8.9
8	109077	520	9.25
8	114388	540	8.925
8	119694	560	8.6829268292683
8	124968	580	9.1
8	130240	600	9.1538461538462
8	135516	620	9.0769230769231
8	140782	640	8.85
8	146156	660	9
8	151456	680	9
8	156756	700	8.925
8	161995	720	9
8	167224	740	8.85
8	172630	760	9
8	177888	780	8.95
8	183235	800	8.7317073170732
8	188604	820	9.1282051282051
8	193949	840	9.1282051282051
8	199250	860	9.1538461538462
8	204599	880	8.95
8	209865	900	8.8780487804878
8	215192	920	8.95
8	220553	940	9.219512195122
8	225867	960	8.8
8	231141	980	8.95
8	236474	1000	8.7073170731707
8	241825	1020	9.075
8	247143	1040	9.075
8	252466	1060	8.85
8	257760	1080	8.825
8	263203	1100	9.1463414634146
8	268564	1120	9.0487804878049
8	273893	1140	8.875
8	279193	1160	8.975
8	284569	1180	8.8048780487805
8	289892	1200	9.2
8	295230	1220	8.7560975609756
8	300483	1240	8.8292682926829
8	305680	1260	8.875
8	310946	1280	9.2307692307692
8	316366	1300	8.925
8	321567	1320	8.7073170731707
8	326836	1340	8.975
8	332180	1360	8.7317073170732
8	337592	1380	9.05
8	342990	1400	9.2439024390244
8	348276	1420	9.2
8	353595	1440	9.1538461538462
8	358893	1460	8.8292682926829
8	364129	1480	8.85
8	369442	1500	8.85
8	374788	1520	9.225
8	380222	1540	9.15
8	385483	1560	9.175
8	390834	1580	8.975
8	396072	1600	8.9268292682927
8	401409	1620	8.780487804878
8	406604	1640	8.8461538461538
8	411941	1660	8.975
8	417237	1680	9.15
8	422615	1700	8.8048780487805
8	427886	1720	9.025641025641
8	433176	1740	9.1
8	438462	1760	9.1
8	443797	1780	8.875
8	449003	1800	8.85
8	453867	1820	8.8648648648649
8	458116	1840	8.3030303030303
8	461914	1860	8.5483870967742
8	465271	1880	8.2962962962963
8	468154	1900	8.2173913043478
8	470692	1920	7.8571428571429
8	472643	1940	7.9411764705882
8	474221	1960	7.2142857142857
8	475290	1980	6.5454545454545
8	475870	2000	4.8571428571429
9	34725	240	1.8002848777418
9	40009	260	1.9819305690381
9	45323	280	1.4542041987121
9	50569	300	1.343312018664
9	55865	320	1.7734491679266
9	61168	340	1.943092832599
9	66524	360	1.9155970857991
9	71798	380	1.9092202469122
9	77215	400	2.0189804484645
9	82532	420	2.0567275476174
9	87782	440	1.6486202467363
9	93139	460	1.2687061852988
9	98433	480	1.7019973183865
9	103741	500	1.498717400364
9	109077	520	1.4978617237882
9	114388	540	2.1290120496823
9	119694	560	1.9292359159813
9	124968	580	1.7066987176478
9	130240	600	1.5817788377324
9	135516	620	1.676220927918
9	140782	640	1.4420427107014
9	146156	660	1.7246329970052
9	151456	680	1.5165750888103
9	156756	700	1.6546360665779
9	161995	720	1.555973210431
9	167224	740	2.2707730525991
9	172630	760	2.0124611797498
9	177888	780	1.6004806970215
9	183235	800	2.0739381649883
9	188604	820	1.9081471748861
9	193949	840	1.7944283238532
9	199250	860	1.7250242033155
9	204599	880	1.6633299933166
9	209865	900	1.9773103189841
9	215192	920	1.738699779455
9	220553	940	1.7249955814719
9	225867	960	1.9637744922496
9	231141	980	1.6004806970215
9	236474	1000	2.1005225830615
9	241825	1020	1.8998987827291
9	247143	1040	1.4030644117751
9	252466	1060	1.7621373967793
9	257760	1080	1.7670415664143
9	263203	1100	1.5420923385089
9	268564	1120	1.4482958867613
9	273893	1140	1.3045777389344
9	279193	1160	1.8043750249794
9	284569	1180	2.2827561432961
9	289892	1200	1.4178351139171
9	295230	1220	1.8944720610882
9	300483	1240	1.8289674549372
9	305680	1260	1.3994046353122
9	310946	1280	1.385289984112
9	316366	1300	1.7886752009124
9	321567	1320	1.9136862652878
9	326836	1340	1.4048907248316
9	332180	1360	1.9624524229125
9	337592	1380	1.9341731155782
9	342990	1400	1.9593428465289
9	348276	1420	1.4178351139171
9	353595	1440	1.8713696298428
9	358893	1460	1.3946762890433
9	364129	1480	1.5283643007796
9	369442	1500	1.915523627949
9	374788	1520	1.4586171884919
9	380222	1540	1.3876746829286
9	385483	1560	1.4121723581882
9	390834	1580	2.0062402647739
9	396072	1600	1.737674363948
9	401409	1620	1.7679394096228
9	406604	1640	1.2039072690829
9	411941	1660	1.8043750249794
9	417237	1680	1.4597154622628
9	422615	1700	2.2607466929659
9	427886	1720	1.5809254366248
9	433176	1740	1.5656570669473
9	438462	1760	1.4105827128331
9	443797	1780	2.0024024032685
9	449003	1800	1.9020906177017
9	453867	1820	1.2055925735726
9	458116	1840	1.629510058362
9	461914	1860	1.6500244377467
9	465271	1880	1.6364787435414
9	468154	1900	2.0216222500109
9	470692	1920	1.7113069358158
9	472643	1940	1.6759545129304
9	474221	1960	1.5281246137553
9	475290	1980	1.2933395813657
9	475870	2000	0.89973541084244
10	34725	240	3.2410256410256
10	40009	260	3.9280487804878
10	45323	280	2.114709851552
10	50569	300	1.8044871794872
10	55865	320	3.1451219512195
10	61168	340	3.7756097560976
10	66524	360	3.669512195122
10	71798	380	3.6451219512195
10	77215	400	4.0762820512821
10	82532	420	4.2301282051282
10	87782	440	2.7179487179487
10	93139	460	1.6096153846154
10	98433	480	2.8967948717949
10	103741	500	2.2461538461538
10	109077	520	2.2435897435897
10	114388	540	4.5326923076923
10	119694	560	3.7219512195122
10	124968	580	2.9128205128205
10	130240	600	2.502024291498
10	135516	620	2.8097165991903
10	140782	640	2.0794871794872
10	146156	660	2.974358974359
10	151456	680	2.3
10	156756	700	2.7378205128205
10	161995	720	2.4210526315789
10	167224	740	5.1564102564103
10	172630	760	4.05
10	177888	780	2.5615384615385
10	183235	800	4.3012195121951
10	188604	820	3.6410256410256
10	193949	840	3.2199730094467
10	199250	860	2.9757085020243
10	204599	880	2.7666666666667
10	209865	900	3.909756097561
10	215192	920	3.0230769230769
10	220553	940	2.9756097560976
10	225867	960	3.8564102564103
10	231141	980	2.5615384615385
10	236474	1000	4.4121951219512
10	241825	1020	3.6096153846154
10	247143	1040	1.9685897435897
10	252466	1060	3.1051282051282
10	257760	1080	3.1224358974359
10	263203	1100	2.3780487804878
10	268564	1120	2.0975609756098
10	273893	1140	1.7019230769231
10	279193	1160	3.2557692307692
10	284569	1180	5.2109756097561
10	289892	1200	2.0102564102564
10	295230	1220	3.5890243902439
10	300483	1240	3.3451219512195
10	305680	1260	1.9583333333333
10	310946	1280	1.919028340081
10	316366	1300	3.199358974359
10	321567	1320	3.6621951219512
10	326836	1340	1.9737179487179
10	332180	1360	3.8512195121951
10	337592	1380	3.7410256410256
10	342990	1400	3.8390243902439
10	348276	1420	2.0102564102564
10	353595	1440	3.502024291498
10	358893	1460	1.9451219512195
10	364129	1480	2.3358974358974
10	369442	1500	3.6692307692308
10	374788	1520	2.1275641025641
10	380222	1540	1.925641025641
10	385483	1560	1.9942307692308
10	390834	1580	4.025
10	396072	1600	3.019512195122
10	401409	1620	3.1256097560976
10	406604	1640	1.4493927125506
10	411941	1660	3.2557692307692
10	417237	1680	2.1307692307692
10	422615	1700	5.1109756097561
10	427886	1720	2.4993252361673
10	433176	1740	2.4512820512821
10	438462	1760	1.9897435897436
10	443797	1780	4.0096153846154
10	449003	1800	3.6179487179487
10	453867	1820	1.4534534534535
10	458116	1840	2.655303030303
10	461914	1860	2.7225806451613
10	465271	1880	2.6780626780627
10	468154	1900	4.0869565217391
10	470692	1920	2.9285714285714
10	472643	1940	2.8088235294118
10	474221	1960	2.3351648351648
10	475290	1980	1.6727272727273
10	475870	2000	0.80952380952381
11	34725	240	412.0868707757
11	40009	260	457.46424370754
11	45323	280	411.68358870911
11	50569	300	468.32305156603
11	55865	320	421.51593012742
11	61168	340	272.18773986679
11	66524	360	369.28894061497
11	71798	380	225.96022666719
11	77215	400	467.86946268071
11	82532	420	419.05229049345
11	87782	440	372.40175455397
11	93139	460	227.52714375143
11	98433	480	413.94035668426
11	103741	500	373.05252055206
11	109077	520	181.58026060512
11	114388	540	326.5854112564
11	119694	560	564.63438307958
11	124968	580	333.01584688615
11	130240	600	468.6262850039
11	135516	620	420.30040635219
11	140782	640	371.52838048802
11	146156	660	182.64224157883
11	151456	680	457.7202403351
11	156756	700	413.48573569411
11	161995	720	229.7055308019
11	167224	740	367.35746554335
11	172630	760	226.53921971474
11	177888	780	367.3771975763
11	183235	800	182.53309366357
11	188604	820	320.137433484
11	193949	840	312.40781060873
11	199250	860	411.60081611407
11	204599	880	368.74168442427
11	209865	900	272.62308779797
11	215192	920	422.43412556431
11	220553	940	465.56738090598
11	225867	960	463.33005712258
11	231141	980	463.28597675569
11	236474	1000	274.21667571404
11	241825	1020	365.39402940808
11	247143	1040	415.99372802609
11	252466	1060	371.90773797889
11	257760	1080	322.97182647077
11	263203	1100	234.54995410629
11	268564	1120	318.3620868956
11	273893	1140	276.38884115894
11	279193	1160	275.78354721633
11	284569	1180	367.45685300946
11	289892	1200	416.232116939
11	295230	1220	275.91630584451
11	300483	1240	282.77093193531
11	305680	1260	465.16103856568
11	310946	1280	367.20333528763
11	316366	1300	230.61317626214
11	321567	1320	324.61477111613
11	326836	1340	134.92748954393
11	332180	1360	415.94159890228
11	337592	1380	430.10432147615
11	342990	1400	376.11336825885
11	348276	1420	280.19266229678
11	353595	1440	372.59100054245
11	358893	1460	225.34396645563
11	364129	1480	370.27478481031
11	369442	1500	415.3391728393
11	374788	1520	334.38957184072
11	380222	1540	319.84505907996
11	385483	1560	364.02633631201
11	390834	1580	319.97131904964
11	396072	1600	369.44603157702
11	401409	1620	274.96943998621
11	406604	1640	225.655697475
11	411941	1660	232.44250934983
11	417237	1680	412.12871465491
11	422615	1700	276.39504675462
11	427886	1720	231.58361468101
11	433176	1740	325.91102054033
11	438462	1760	183.92312877376
11	443797	1780	275.60839780632
11	449003	1800	228.16414615129
11	453867	1820	413.61027165462
11	458116	1840	321.74200108744
11	461914	1860	229.09953443334
11	465271	1880	178.6155606365
11	468154	1900	89.370847339032
11	470692	1920	230.43533871402
11	472643	1940	139.57176798388
11	474221	1960	185.67628890784
11	475290	1980	145.79599903897
11	475870	2000	45.627953739135
12	34725	240	45.787430086189
12	40009	260	45.746424370754
12	45323	280	45.742620967679
12	50569	300	46.832305156603
12	55865	320	46.835103347491
12	61168	340	45.364623311132
12	66524	360	46.161117576872
12	71798	380	45.192045333437
12	77215	400	46.786946268071
12	82532	420	46.561365610383
12	87782	440	46.550219319246
12	93139	460	45.505428750286
12	98433	480	45.993372964918
12	103741	500	46.631565069008
12	109077	520	45.395065151281
12	114388	540	46.655058750915
12	119694	560	47.052865256632
12	124968	580	47.573692412307
12	130240	600	46.86262850039
12	135516	620	46.700045150244
12	140782	640	46.441047561002
12	146156	660	45.660560394708
12	151456	680	45.77202403351
12	156756	700	45.942859521568
12	161995	720	45.941106160381
12	167224	740	45.919683192918
12	172630	760	45.307843942949
12	177888	780	45.922149697037
12	183235	800	45.633273415892
12	188604	820	45.733919069142
12	193949	840	44.629687229819
12	199250	860	45.733424012674
12	204599	880	46.092710553034
12	209865	900	45.437181299661
12	215192	920	46.937125062701
12	220553	940	46.556738090598
12	225867	960	46.333005712258
12	231141	980	46.328597675569
12	236474	1000	45.702779285673
12	241825	1020	45.67425367601
12	247143	1040	46.221525336232
12	252466	1060	46.488467247361
12	257760	1080	46.138832352967
12	263203	1100	46.909990821259
12	268564	1120	45.480298127943
12	273893	1140	46.064806859823
12	279193	1160	45.963924536055
12	284569	1180	45.932106626183
12	289892	1200	46.248012993223
12	295230	1220	45.986050974085
12	300483	1240	47.128488655885
12	305680	1260	46.516103856568
12	310946	1280	45.900416910954
12	316366	1300	46.122635252428
12	321567	1320	46.373538730876
12	326836	1340	44.975829847976
12	332180	1360	46.215733211365
12	337592	1380	47.789369052906
12	342990	1400	47.014171032356
12	348276	1420	46.698777049463
12	353595	1440	46.573875067806
12	358893	1460	45.068793291125
12	364129	1480	46.284348101289
12	369442	1500	46.148796982144
12	374788	1520	47.769938834389
12	380222	1540	45.692151297137
12	385483	1560	45.503292039001
12	390834	1580	45.710188435664
12	396072	1600	46.180753947127
12	401409	1620	45.828239997702
12	406604	1640	45.131139494999
12	411941	1660	46.488501869965
12	417237	1680	45.792079406101
12	422615	1700	46.06584112577
12	427886	1720	46.316722936203
12	433176	1740	46.558717220047
12	438462	1760	45.980782193439
12	443797	1780	45.934732967721
12	449003	1800	45.632829230259
12	453867	1820	45.956696850514
12	458116	1840	45.963143012491
12	461914	1860	45.819906886668
12	465271	1880	44.653890159124
12	468154	1900	44.685423669516
12	470692	1920	46.087067742804
12	472643	1940	46.523922661292
12	474221	1960	46.419072226961
12	475290	1980	48.598666346322
12	475870	2000	45.627953739135
13	34725	240	1.3585554021595
13	40009	260	0.83631873070397
13	45323	280	1.3687766731039
13	50569	300	1.1974068450438
13	55865	320	2.4071245038325
13	61168	340	0.65918987526021
13	66524	360	2.0394564965586
13	71798	380	0.59605075012495
13	77215	400	2.1830368558065
13	82532	420	2.4448094203331
13	87782	440	1.6403522707465
13	93139	460	0.38066084886071
13	98433	480	0.91397434329652
13	103741	500	1.6807642621842
13	109077	520	0.48930953085093
13	114388	540	2.4205858650864
13	119694	560	2.1206051663215
13	124968	580	2.5485268120257
13	130240	600	1.921598963816
13	135516	620	1.7952877668967
13	140782	640	1.2640656844904
13	146156	660	1.1241738122588
13	151456	680	1.8293316600224
13	156756	700	1.7381911113179
13	161995	720	1.7752228902577
13	167224	740	0.60989942754039
13	172630	760	0.49740901101877
13	177888	780	1.5427020973825
13	183235	800	0.87398477977821
13	188604	820	1.4075367301099
13	193949	840	0.79117365353692
13	199250	860	0.79214375976543
13	204599	880	2.1851832760263
13	209865	900	0.51182264713369
13	215192	920	4.1623225545307