version 2
run statisticRVV-130-20150327-06:07:31-6532
attr c 15
attr configname statisticRVV
attr datetime 20150327-06:07:31
attr experiment statisticRVV
attr inifile omnetpp.ini
attr iterationvars "$sc=\"erlangen-medium.launchd.xml\", $p=1/15, $c=15"
attr iterationvars2 "$sc=\"erlangen-medium.launchd.xml\", $p=1/15, $c=15, $repetition=0"
attr measurement "$sc=\"erlangen-medium.launchd.xml\", $p=1/15, $c=15"
attr network RSUExampleScenario
attr p 1/15
attr processid 6532
attr repetition 0
attr replication #0
attr resultdir results
attr runnumber 130
attr sc "\"erlangen-medium.launchd.xml\""
attr seedset 130

vector 0  RSUExampleScenario.rsu[0].appl  Number_CH  ETV
vector 1  RSUExampleScenario.rsu[0].appl  Number_ON  ETV
vector 2  RSUExampleScenario.rsu[0].appl  Number_FN  ETV
vector 3  RSUExampleScenario.rsu[0].appl  Number_CH_Losts  ETV
vector 4  RSUExampleScenario.rsu[0].appl  Number_CH_Losts  ETV
vector 5  RSUExampleScenario.rsu[0].appl  Mean_Cluster_Size  ETV
vector 6  RSUExampleScenario.rsu[0].appl  StdDev_Cluster_Size  ETV
vector 7  RSUExampleScenario.rsu[0].appl  Variance_Cluster_Size  ETV
vector 8  RSUExampleScenario.rsu[0].appl  Mean_Neighbors  ETV
vector 9  RSUExampleScenario.rsu[0].appl  StdDev_Neighbors  ETV
vector 10  RSUExampleScenario.rsu[0].appl  Variance_Neighbors  ETV
vector 11  RSUExampleScenario.rsu[0].appl  Total_CH_Utility  ETV
vector 12  RSUExampleScenario.rsu[0].appl  Mean_CH_Utility  ETV
vector 13  RSUExampleScenario.rsu[0].appl  StdDev_CH_Utility  ETV
vector 14  RSUExampleScenario.rsu[0].appl  Variance_CH_Utility  ETV
vector 15  RSUExampleScenario.rsu[0].appl  Total_exp_CH_Utility  ETV
vector 16  RSUExampleScenario.rsu[0].appl  Mean_exp_CH_Utility  ETV
vector 17  RSUExampleScenario.rsu[0].appl  StdDev_exp_CH_Utility  ETV
vector 18  RSUExampleScenario.rsu[0].appl  Variance_exp_CH_Utility  ETV
vector 19  RSUExampleScenario.rsu[0].appl  Total_ON_Utility  ETV
vector 20  RSUExampleScenario.rsu[0].appl  Mean_ON_Utility  ETV
vector 21  RSUExampleScenario.rsu[0].appl  StdDev_ON_Utility  ETV
vector 22  RSUExampleScenario.rsu[0].appl  Variance_ON_Utility  ETV
vector 23  RSUExampleScenario.rsu[0].appl  Total_exp_ON_Utility  ETV
vector 24  RSUExampleScenario.rsu[0].appl  Mean_exp_ON_Utility  ETV
vector 25  RSUExampleScenario.rsu[0].appl  StdDev_exp_ON_Utility  ETV
vector 26  RSUExampleScenario.rsu[0].appl  Variance_exp_ON_Utility  ETV
0	145846	240	0
0	171867	260	9
0	199164	280	9
0	226264	300	5
0	253377	320	8
0	280340	340	3
0	307309	360	8
0	334518	380	6
0	362209	400	3
0	389597	420	9
0	417445	440	13
0	445947	460	11
0	474687	480	7
0	504155	500	10
0	533643	520	7
0	563940	540	10
0	595178	560	7
0	626754	580	8
0	659265	600	7
0	692580	620	6
0	726770	640	3
0	761869	660	8
0	798263	680	12
0	835171	700	8
0	873577	720	9
0	913292	740	7
0	954251	760	10
0	995801	780	8
0	1039512	800	10
0	1083886	820	8
0	1129269	840	9
0	1176106	860	9
0	1224065	880	8
0	1273154	900	9
0	1323264	920	6
0	1374366	940	11
0	1427221	960	12
0	1481111	980	10
0	1536329	1000	6
0	1593324	1020	11
0	1651031	1040	9
0	1710063	1060	9
0	1771081	1080	12
0	1834223	1100	6
0	1898836	1120	4
0	1964219	1140	10
0	2031093	1160	14
0	2099887	1180	18
0	2171040	1200	12
0	2243456	1220	14
0	2316927	1240	10
0	2393293	1260	9
0	2471883	1280	12
0	2552677	1300	11
0	2635348	1320	6
0	2720017	1340	4
0	2807514	1360	11
0	2896178	1380	6
0	2987139	1400	8
0	3080079	1420	11
0	3175394	1440	7
0	3271885	1460	7
0	3370118	1480	9
0	3471567	1500	9
0	3574449	1520	7
0	3679549	1540	8
0	3786777	1560	13
0	3896965	1580	14
0	4008719	1600	12
0	4123496	1620	7
0	4240809	1640	10
0	4360185	1660	14
0	4481530	1680	11
0	4605523	1700	8
0	4731224	1720	8
0	4858572	1740	14
0	4988849	1760	8
0	5122751	1780	10
0	5257571	1800	17
0	5395489	1820	18
0	5535250	1840	14
0	5677435	1860	16
0	5823082	1880	11
0	5970988	1900	9
0	6120788	1920	12
0	6273100	1940	14
0	6428323	1960	14
0	6586322	1980	16
0	6745774	2000	14
1	145846	240	0
1	171867	260	59
1	199164	280	73
1	226264	300	62
1	253377	320	69
1	280340	340	26
1	307309	360	78
1	334518	380	56
1	362209	400	25
1	389597	420	72
1	417445	440	79
1	445947	460	70
1	474687	480	78
1	504155	500	77
1	533643	520	62
1	563940	540	84
1	595178	560	82
1	626754	580	76
1	659265	600	61
1	692580	620	61
1	726770	640	41
1	761869	660	83
1	798263	680	94
1	835171	700	74
1	873577	720	87
1	913292	740	51
1	954251	760	81
1	995801	780	76
1	1039512	800	87
1	1083886	820	89
1	1129269	840	97
1	1176106	860	86
1	1224065	880	88
1	1273154	900	63
1	1323264	920	72
1	1374366	940	90
1	1427221	960	104
1	1481111	980	101
1	1536329	1000	82
1	1593324	1020	114
1	1651031	1040	79
1	1710063	1060	109
1	1771081	1080	112
1	1834223	1100	83
1	1898836	1120	41
1	1964219	1140	104
1	2031093	1160	118
1	2099887	1180	121
1	2171040	1200	124
1	2243456	1220	107
1	2316927	1240	110
1	2393293	1260	85
1	2471883	1280	124
1	2552677	1300	100
1	2635348	1320	73
1	2720017	1340	57
1	2807514	1360	129
1	2896178	1380	75
1	2987139	1400	88
1	3080079	1420	117
1	3175394	1440	98
1	3271885	1460	78
1	3370118	1480	112
1	3471567	1500	97
1	3574449	1520	102
1	3679549	1540	107
1	3786777	1560	114
1	3896965	1580	147
1	4008719	1600	116
1	4123496	1620	99
1	4240809	1640	113
1	4360185	1660	142
1	4481530	1680	112
1	4605523	1700	115
1	4731224	1720	110
1	4858572	1740	140
1	4988849	1760	103
1	5122751	1780	125
1	5257571	1800	152
1	5395489	1820	151
1	5535250	1840	152
1	5677435	1860	147
1	5823082	1880	151
1	5970988	1900	114
1	6120788	1920	103
1	6273100	1940	134
1	6428323	1960	134
1	6586322	1980	152
1	6745774	2000	152
2	145846	240	78
2	171867	260	17
2	199164	280	10
2	226264	300	27
2	253377	320	16
2	280340	340	63
2	307309	360	8
2	334518	380	31
2	362209	400	67
2	389597	420	14
2	417445	440	1
2	445947	460	17
2	474687	480	13
2	504155	500	13
2	533643	520	32
2	563940	540	8
2	595178	560	14
2	626754	580	20
2	659265	600	37
2	692580	620	41
2	726770	640	63
2	761869	660	19
2	798263	680	5
2	835171	700	30
2	873577	720	15
2	913292	740	57
2	954251	760	25
2	995801	780	32
2	1039512	800	21
2	1083886	820	24
2	1129269	840	12
2	1176106	860	27
2	1224065	880	26
2	1273154	900	51
2	1323264	920	50
2	1374366	940	25
2	1427221	960	12
2	1481111	980	20
2	1536329	1000	42
2	1593324	1020	6
2	1651031	1040	43
2	1710063	1060	15
2	1771081	1080	10
2	1834223	1100	48
2	1898836	1120	94
2	1964219	1140	26
2	2031093	1160	9
2	2099887	1180	3
2	2171040	1200	7
2	2243456	1220	24
2	2316927	1240	25
2	2393293	1260	53
2	2471883	1280	12
2	2552677	1300	38
2	2635348	1320	71
2	2720017	1340	91
2	2807514	1360	13
2	2896178	1380	74
2	2987139	1400	59
2	3080079	1420	28
2	3175394	1440	52
2	3271885	1460	74
2	3370118	1480	39
2	3471567	1500	54
2	3574449	1520	54
2	3679549	1540	49
2	3786777	1560	39
2	3896965	1580	6
2	4008719	1600	39
2	4123496	1620	64
2	4240809	1640	48
2	4360185	1660	15
2	4481530	1680	48
2	4605523	1700	50
2	4731224	1720	57
2	4858572	1740	22
2	4988849	1760	64
2	5122751	1780	44
2	5257571	1800	10
2	5395489	1820	11
2	5535250	1840	16
2	5677435	1860	19
2	5823082	1880	25
2	5970988	1900	61
2	6120788	1920	72
2	6273100	1940	40
2	6428323	1960	42
2	6586322	1980	23
2	6745774	2000	25
3	145846	240	0
3	171867	260	0
3	199164	280	0
3	226264	300	0
3	253377	320	1
3	280340	340	0
3	307309	360	1
3	334518	380	0
3	362209	400	0
3	389597	420	0
3	417445	440	1
3	445947	460	0
3	474687	480	0
3	504155	500	1
3	533643	520	0
3	563940	540	1
3	595178	560	0
3	626754	580	0
3	659265	600	0
3	692580	620	1
3	726770	640	0
3	761869	660	0
3	798263	680	0
3	835171	700	0
3	873577	720	0
3	913292	740	0
3	954251	760	0
3	995801	780	0
3	1039512	800	1
3	1083886	820	0
3	1129269	840	1
3	1176106	860	0
3	1224065	880	0
3	1273154	900	0
3	1323264	920	0
3	1374366	940	0
3	1427221	960	0
3	1481111	980	2
3	1536329	1000	0
3	1593324	1020	2
3	1651031	1040	0
3	1710063	1060	0
3	1771081	1080	1
3	1834223	1100	0
3	1898836	1120	0
3	1964219	1140	0
3	2031093	1160	0
3	2099887	1180	1
3	2171040	1200	0
3	2243456	1220	0
3	2316927	1240	0
3	2393293	1260	0
3	2471883	1280	0
3	2552677	1300	1
3	2635348	1320	0
3	2720017	1340	0
3	2807514	1360	0
3	2896178	1380	0
3	2987139	1400	0
3	3080079	1420	0
3	3175394	1440	0
3	3271885	1460	0
3	3370118	1480	0
3	3471567	1500	0
3	3574449	1520	1
3	3679549	1540	0
3	3786777	1560	0
3	3896965	1580	1
3	4008719	1600	0
3	4123496	1620	0
3	4240809	1640	0
3	4360185	1660	0
3	4481530	1680	1
3	4605523	1700	0
3	4731224	1720	0
3	4858572	1740	0
3	4988849	1760	0
3	5122751	1780	1
3	5257571	1800	0
3	5395489	1820	0
3	5535250	1840	0
3	5677435	1860	0
3	5823082	1880	0
3	5970988	1900	0
3	6120788	1920	0
3	6273100	1940	1
3	6428323	1960	0
3	6586322	1980	1
3	6745774	2000	0
4	145846	240	78
4	171867	260	17
4	199164	280	10
4	226264	300	27
4	253377	320	15
4	280340	340	63
4	307309	360	7
4	334518	380	31
4	362209	400	66
4	389597	420	14
4	417445	440	0
4	445947	460	17
4	474687	480	13
4	504155	500	12
4	533643	520	32
4	563940	540	7
4	595178	560	14
4	626754	580	20
4	659265	600	37
4	692580	620	40
4	726770	640	63
4	761869	660	19
4	798263	680	5
4	835171	700	30
4	873577	720	15
4	913292	740	57
4	954251	760	24
4	995801	780	32
4	1039512	800	20
4	1083886	820	24
4	1129269	840	11
4	1176106	860	27
4	1224065	880	26
4	1273154	900	51
4	1323264	920	50
4	1374366	940	24
4	1427221	960	12
4	1481111	980	17
4	1536329	1000	42
4	1593324	1020	4
4	1651031	1040	43
4	1710063	1060	15
4	1771081	1080	9
4	1834223	1100	47
4	1898836	1120	94
4	1964219	1140	26
4	2031093	1160	9
4	2099887	1180	2
4	2171040	1200	7
4	2243456	1220	23
4	2316927	1240	25
4	2393293	1260	53
4	2471883	1280	12
4	2552677	1300	36
4	2635348	1320	71
4	2720017	1340	90
4	2807514	1360	13
4	2896178	1380	74
4	2987139	1400	59
4	3080079	1420	28
4	3175394	1440	52
4	3271885	1460	74
4	3370118	1480	39
4	3471567	1500	54
4	3574449	1520	53
4	3679549	1540	48
4	3786777	1560	39
4	3896965	1580	5
4	4008719	1600	39
4	4123496	1620	64
4	4240809	1640	48
4	4360185	1660	15
4	4481530	1680	47
4	4605523	1700	49
4	4731224	1720	57
4	4858572	1740	22
4	4988849	1760	64
4	5122751	1780	43
4	5257571	1800	10
4	5395489	1820	11
4	5535250	1840	16
4	5677435	1860	19
4	5823082	1880	25
4	5970988	1900	61
4	6120788	1920	72
4	6273100	1940	39
4	6428323	1960	41
4	6586322	1980	22
4	6745774	2000	25
5	145846	240	nan
5	171867	260	6.5555555555556
5	199164	280	8.1111111111111
5	226264	300	12.4
5	253377	320	8.625
5	280340	340	8.6666666666667
5	307309	360	9.75
5	334518	380	9.3333333333333
5	362209	400	8.3333333333333
5	389597	420	8
5	417445	440	6.0769230769231
5	445947	460	6.3636363636364
5	474687	480	11.142857142857
5	504155	500	7.7
5	533643	520	8.8571428571429
5	563940	540	8.4
5	595178	560	11.714285714286
5	626754	580	9.5
5	659265	600	8.7142857142857
5	692580	620	10.166666666667
5	726770	640	13.666666666667
5	761869	660	10.375
5	798263	680	7.8333333333333
5	835171	700	9.25
5	873577	720	9.6666666666667
5	913292	740	7.2857142857143
5	954251	760	8.1
5	995801	780	9.5
5	1039512	800	8.7
5	1083886	820	11.125
5	1129269	840	10.777777777778
5	1176106	860	9.5555555555556
5	1224065	880	11
5	1273154	900	7
5	1323264	920	12
5	1374366	940	8.1818181818182
5	1427221	960	8.6666666666667
5	1481111	980	10.1
5	1536329	1000	13.666666666667
5	1593324	1020	10.363636363636
5	1651031	1040	8.7777777777778
5	1710063	1060	12.111111111111
5	1771081	1080	9.3333333333333
5	1834223	1100	13.833333333333
5	1898836	1120	10.25
5	1964219	1140	10.4
5	2031093	1160	8.4285714285714
5	2099887	1180	6.7222222222222
5	2171040	1200	10.333333333333
5	2243456	1220	7.6428571428571
5	2316927	1240	11
5	2393293	1260	9.4444444444444
5	2471883	1280	10.333333333333
5	2552677	1300	9.0909090909091
5	2635348	1320	12.166666666667
5	2720017	1340	14.25
5	2807514	1360	11.727272727273
5	2896178	1380	12.5
5	2987139	1400	11
5	3080079	1420	10.636363636364
5	3175394	1440	14
5	3271885	1460	11.142857142857
5	3370118	1480	12.444444444444
5	3471567	1500	10.777777777778
5	3574449	1520	14.571428571429
5	3679549	1540	13.375
5	3786777	1560	8.7692307692308
5	3896965	1580	10.5
5	4008719	1600	9.6666666666667
5	4123496	1620	14.142857142857
5	4240809	1640	11.3
5	4360185	1660	10.142857142857
5	4481530	1680	10.181818181818
5	4605523	1700	14.375
5	4731224	1720	13.75
5	4858572	1740	10
5	4988849	1760	12.875
5	5122751	1780	12.5
5	5257571	1800	8.9411764705882
5	5395489	1820	8.3888888888889
5	5535250	1840	10.857142857143
5	5677435	1860	9.1875
5	5823082	1880	13.727272727273
5	5970988	1900	12.666666666667
5	6120788	1920	8.5833333333333
5	6273100	1940	9.5714285714286
5	6428323	1960	9.5714285714286
5	6586322	1980	9.5
5	6745774	2000	10.857142857143
6	145846	240	nan
6	171867	260	4.5856054973992
6	199164	280	4.8591265790378
6	226264	300	3.9749213828704
6	253377	320	5.604526232048
6	280340	340	4.5092497528229
6	307309	360	4.2342143815083
6	334518	380	3.8297084310254
6	362209	400	5.1316014394469
6	389597	420	4.8218253804965
6	417445	440	2.5968422639024
6	445947	460	4.2725338447513
6	474687	480	3.976119189552
6	504155	500	2.9832867780353
6	533643	520	4.4131837120372
6	563940	540	4.1686661868969
6	595178	560	4.3094580368567
6	626754	580	4.4400772194057
6	659265	600	5.5592051504475
6	692580	620	3.6009258068817
6	726770	640	1.1547005383793
6	761869	660	2.7742437837055
6	798263	680	4.7641336774874
6	835171	700	4.6827952580239
6	873577	720	3.9370039370059
6	913292	740	4.820590756131
6	954251	760	5.2799410771123
6	995801	780	3.5050983275387
6	1039512	800	3.713339317769
6	1083886	820	2.5319388392523
6	1129269	840	3.7675515184858
6	1176106	860	3.5746017649212
6	1224065	880	4.2761798705988
6	1273154	900	4.3011626335213
6	1323264	920	4
6	1374366	940	4.0451991747795
6	1427221	960	4.1851106932973
6	1481111	980	4.4334586448455
6	1536329	1000	2.0655911179773
6	1593324	1020	4.5885232324295
6	1651031	1040	5.2387445485006
6	1710063	1060	2.7131367660166
6	1771081	1080	4.052683360965
6	1834223	1100	1.16904519445
6	1898836	1120	4.112987559751
6	1964219	1140	4.5018514709691
6	2031093	1160	4.4672188166737
6	2099887	1180	3.9228674319799
6	2171040	1200	3.4989175815421
6	2243456	1220	5.1680548767202
6	2316927	1240	2.7080128015453
6	2393293	1260	5.2704627669473
6	2471883	1280	4.3554215605033
6	2552677	1300	4.7424581274808
6	2635348	1320	3.1885210782848
6	2720017	1340	1.5
6	2807514	1360	3.1651511525015
6	2896178	1380	4.722287581247
6	2987139	1400	3.9279220242479
6	3080079	1420	3.0090771765685
6	3175394	1440	1.4142135623731
6	3271885	1460	5.3674504012169
6	3370118	1480	2.9202359113225
6	3471567	1500	4.8933060853011
6	3574449	1520	0.78679579246944
6	3679549	1540	2.7222627143085
6	3786777	1560	4.0856220691968
6	3896965	1580	3.6951111152232
6	4008719	1600	3.5760143718781
6	4123496	1620	0.89973541084244
6	4240809	1640	3.8600518131238
6	4360185	1660	4.4177464296272
6	4481530	1680	4.833594559294
6	4605523	1700	0.9161253813129
6	4731224	1720	1.5811388300842
6	4858572	1740	3.3741095691479
6	4988849	1760	3.3567628964312
6	5122751	1780	2.9533408577782
6	5257571	1800	3.9917193700725
6	5395489	1820	4.5262487895138
6	5535250	1840	3.8800702384036
6	5677435	1860	4.3392587692677
6	5823082	1880	1.2720777563427
6	5970988	1900	2
6	6120788	1920	4.0330077504453
6	6273100	1940	4.6527789167713
6	6428323	1960	4.0708019567929
6	6586322	1980	4.5752959831396
6	6745774	2000	3.0598427022704
7	145846	240	nan
7	171867	260	21.027777777778
7	199164	280	23.611111111111
7	226264	300	15.8
7	253377	320	31.410714285714
7	280340	340	20.333333333333
7	307309	360	17.928571428571
7	334518	380	14.666666666667
7	362209	400	26.333333333333
7	389597	420	23.25
7	417445	440	6.7435897435897
7	445947	460	18.254545454545
7	474687	480	15.809523809524
7	504155	500	8.9
7	533643	520	19.47619047619
7	563940	540	17.377777777778
7	595178	560	18.571428571429
7	626754	580	19.714285714286
7	659265	600	30.904761904762
7	692580	620	12.966666666667
7	726770	640	1.3333333333333
7	761869	660	7.6964285714286
7	798263	680	22.69696969697
7	835171	700	21.928571428571
7	873577	720	15.5
7	913292	740	23.238095238095
7	954251	760	27.877777777778
7	995801	780	12.285714285714
7	1039512	800	13.788888888889
7	1083886	820	6.4107142857143
7	1129269	840	14.194444444444
7	1176106	860	12.777777777778
7	1224065	880	18.285714285714
7	1273154	900	18.5
7	1323264	920	16
7	1374366	940	16.363636363636
7	1427221	960	17.515151515152
7	1481111	980	19.655555555556
7	1536329	1000	4.2666666666667
7	1593324	1020	21.054545454545
7	1651031	1040	27.444444444444
7	1710063	1060	7.3611111111111
7	1771081	1080	16.424242424242
7	1834223	1100	1.3666666666667
7	1898836	1120	16.916666666667
7	1964219	1140	20.266666666667
7	2031093	1160	19.956043956044
7	2099887	1180	15.388888888889
7	2171040	1200	12.242424242424
7	2243456	1220	26.708791208791
7	2316927	1240	7.3333333333333
7	2393293	1260	27.777777777778
7	2471883	1280	18.969696969697
7	2552677	1300	22.490909090909
7	2635348	1320	10.166666666667
7	2720017	1340	2.25
7	2807514	1360	10.018181818182
7	2896178	1380	22.3
7	2987139	1400	15.428571428571
7	3080079	1420	9.0545454545455
7	3175394	1440	2
7	3271885	1460	28.809523809524
7	3370118	1480	8.5277777777778
7	3471567	1500	23.944444444444
7	3574449	1520	0.61904761904762
7	3679549	1540	7.4107142857143
7	3786777	1560	16.692307692308
7	3896965	1580	13.653846153846
7	4008719	1600	12.787878787879
7	4123496	1620	0.80952380952381
7	4240809	1640	14.9
7	4360185	1660	19.516483516484
7	4481530	1680	23.363636363636
7	4605523	1700	0.83928571428571
7	4731224	1720	2.5
7	4858572	1740	11.384615384615
7	4988849	1760	11.267857142857
7	5122751	1780	8.7222222222222
7	5257571	1800	15.933823529412
7	5395489	1820	20.486928104575
7	5535250	1840	15.054945054945
7	5677435	1860	18.829166666667
7	5823082	1880	1.6181818181818
7	5970988	1900	4
7	6120788	1920	16.265151515152
7	6273100	1940	21.648351648352
7	6428323	1960	16.571428571429
7	6586322	1980	20.933333333333
7	6745774	2000	9.3626373626374
8	145846	240	22.948717948718
8	171867	260	22.670588235294
8	199164	280	22.532608695652
8	226264	300	22.148936170213
8	253377	320	22.268817204301
8	280340	340	22.402173913043
8	307309	360	22.106382978723
8	334518	380	22.41935483871
8	362209	400	22.627659574468
8	389597	420	22.136842105263
8	417445	440	22.763440860215
8	445947	460	21.877551020408
8	474687	480	22.142857142857
8	504155	500	22.02
8	533643	520	22
8	563940	540	22.356435643564
8	595178	560	22.621359223301
8	626754	580	22.528846153846
8	659265	600	22.742857142857
8	692580	620	23.12962962963
8	726770	640	23.81308411215
8	761869	660	23.418181818182
8	798263	680	24.369369369369
8	835171	700	24.758928571429
8	873577	720	25.414414414414
8	913292	740	25.739130434783
8	954251	760	26.573913043478
8	995801	780	27.577586206897
8	1039512	800	27.830508474576
8	1083886	820	28.107438016529
8	1129269	840	28.347457627119
8	1176106	860	29.065573770492
8	1224065	880	29.245901639344
8	1273154	900	29.569105691057
8	1323264	920	29.703125
8	1374366	940	30.272
8	1427221	960	30.6953125
8	1481111	980	31.372093023256
8	1536329	1000	31.4
8	1593324	1020	32.007633587786
8	1651031	1040	32.320610687023
8	1710063	1060	32.721804511278
8	1771081	1080	33.15671641791
8	1834223	1100	33.926470588235
8	1898836	1120	34.028776978417
8	1964219	1140	34.6
8	2031093	1160	34.929078014184
8	2099887	1180	35.753521126761
8	2171040	1200	36.559440559441
8	2243456	1220	37.680555555556
8	2316927	1240	37.31724137931
8	2393293	1260	38.224489795918
8	2471883	1280	38.959459459459
8	2552677	1300	39.966216216216
8	2635348	1320	40.706666666667
8	2720017	1340	40.986754966887
8	2807514	1360	41.960784313725
8	2896178	1380	42.522580645161
8	2987139	1400	43.096774193548
8	3080079	1420	44.24358974359
8	3175394	1440	44.923566878981
8	3271885	1460	45.106918238994
8	3370118	1480	45.6
8	3471567	1500	47.0375
8	3574449	1520	47.171779141104
8	3679549	1540	47.828220858896
8	3786777	1560	48.174698795181
8	3896965	1580	49.023952095808
8	4008719	1600	49.838323353293
8	4123496	1620	49.841176470588
8	4240809	1640	50.877192982456
8	4360185	1660	51.421052631579
8	4481530	1680	52.333333333333
8	4605523	1700	52.552325581395
8	4731224	1720	52.771428571429
8	4858572	1740	52.857954545455
8	4988849	1760	53.942857142857
8	5122751	1780	54.415730337079
8	5257571	1800	54.597765363128
8	5395489	1820	55.738888888889
8	5535250	1840	55.703296703297
8	5677435	1860	56.291208791209
8	5823082	1880	56.534759358289
8	5970988	1900	58.092391304348
8	6120788	1920	58.401069518717
8	6273100	1940	58.797872340426
8	6428323	1960	59.195767195767
8	6586322	1980	59.926701570681
8	6745774	2000	59.916230366492
9	145846	240	4.3897680200739
9	171867	260	4.1672996718045
9	199164	280	5.0414786923717
9	226264	300	4.7788905150696
9	253377	320	3.7796358950078
9	280340	340	4.2505585479348
9	307309	360	4.358820214026
9	334518	380	3.915750193672
9	362209	400	4.8326489153236
9	389597	420	4.7391769783635
9	417445	440	3.826105550552
9	445947	460	5.2470223389276
9	474687	480	4.6639658360228
9	504155	500	4.4426309431428
9	533643	520	4.7833042972406
9	563940	540	3.7298368822667
9	595178	560	3.908553979777
9	626754	580	3.4946748137375
9	659265	600	3.8079586986402
9	692580	620	4.1221820566628
9	726770	640	2.5812489339264
9	761869	660	4.1272907304887
9	798263	680	4.1074830336128
9	835171	700	4.6658536017207
9	873577	720	4.5276292581689
9	913292	740	5.228274943645
9	954251	760	5.5631318794508
9	995801	780	5.992968143284
9	1039512	800	6.9973194925717
9	1083886	820	7.3278028231439
9	1129269	840	7.3349381911111
9	1176106	860	8.0686493640899
9	1224065	880	7.7761145999295
9	1273154	900	8.512364489004
9	1323264	920	9.4796585996203
9	1374366	940	9.0690683093689
9	1427221	960	9.5187825875381
9	1481111	980	9.9255586803101
9	1536329	1000	9.9608536105679
9	1593324	1020	11.264304535332
9	1651031	1040	11.2141855053
9	1710063	1060	11.462953096335
9	1771081	1080	11.966026141465
9	1834223	1100	13.163716886419
9	1898836	1120	13.612090984017
9	1964219	1140	13.47088520482
9	2031093	1160	13.820608519821
9	2099887	1180	14.15876873865
9	2171040	1200	15.277997793763
9	2243456	1220	15.418022683387
9	2316927	1240	16.038453551922
9	2393293	1260	16.354294781061
9	2471883	1280	17.138443232701
9	2552677	1300	17.739772579259
9	2635348	1320	18.257497004464
9	2720017	1340	18.482419305912
9	2807514	1360	20.02625985029
9	2896178	1380	20.206188933569
9	2987139	1400	21.035459917534
9	3080079	1420	21.862435538516
9	3175394	1440	21.461516363755
9	3271885	1460	21.774619761527
9	3370118	1480	22.813766118909
9	3471567	1500	23.671995369632
9	3574449	1520	23.866810234418
9	3679549	1540	23.941181807114
9	3786777	1560	24.635516826376
9	3896965	1580	25.372633035978
9	4008719	1600	25.588099023369
9	4123496	1620	25.70344205586
9	4240809	1640	26.214771436846
9	4360185	1660	26.408519593509
9	4481530	1680	26.569553561748
9	4605523	1700	27.037177033272
9	4731224	1720	26.923781004525
9	4858572	1740	26.975909767647
9	4988849	1760	26.918931996567
9	5122751	1780	27.664784765659
9	5257571	1800	27.837514005198
9	5395489	1820	28.3050746361
9	5535250	1840	28.528359256876
9	5677435	1860	28.504295104681
9	5823082	1880	29.62349075727
9	5970988	1900	29.217988821155
9	6120788	1920	29.708885006212
9	6273100	1940	30.036370034687
9	6428323	1960	30.354094383095
9	6586322	1980	30.360203679886
9	6745774	2000	31.054337749878
10	145846	240	19.270063270063
10	171867	260	17.366386554622
10	199164	280	25.416507405638
10	226264	300	22.837794555022
10	253377	320	14.285647498831
10	280340	340	18.067247969422
10	307309	360	18.999313658202
10	334518	380	15.333099579243
10	362209	400	23.354495538778
10	389597	420	22.459798432251
10	417445	440	14.639083683964
10	445947	460	27.531243425205
10	474687	480	21.752577319588
10	504155	500	19.73696969697
10	533643	520	22.88
10	563940	540	13.911683168317
10	595178	560	15.276794212831
10	626754	580	12.212752053771
10	659265	600	14.500549450549
10	692580	620	16.992384908273
10	726770	640	6.6628460588961
10	761869	660	17.034528773978
10	798263	680	16.871416871417
10	835171	700	21.77018983269
10	873577	720	20.499426699427
10	913292	740	27.334858886346
10	954251	760	30.948436308162
10	995801	780	35.915667166417
10	1039512	800	48.962480081124
10	1083886	820	53.696694214876
10	1129269	840	53.80131826742
10	1176106	860	65.103102560629
10	1224065	880	60.467958271237
10	1273154	900	72.460349193656
10	1323264	920	89.863927165354
10	1374366	940	82.248
10	1427221	960	90.607221948819
10	1481111	980	98.516715116279
10	1536329	1000	99.218604651163
10	1593324	1020	126.88455666471
10	1651031	1040	125.75795654727
10	1710063	1060	131.39929368877
10	1771081	1080	143.18578161822
10	1834223	1100	173.2834422658
10	1898836	1120	185.28902095715
10	1964219	1140	181.46474820144
10	2031093	1160	191.00921985816
10	2099887	1180	200.47073219459
10	2171040	1200	233.41721658623
10	2243456	1220	237.71542346542
10	2316927	1240	257.23199233716
10	2393293	1260	267.46295778585
10	2471883	1280	293.72623644052
10	2552677	1300	314.69953116382
10	2635348	1320	333.33619686801
10	2720017	1340	341.59982339956
10	2807514	1360	401.05108359133
10	2896178	1380	408.2900712191
10	2987139	1400	442.49057394219
10	3080079	1420	477.96608767577
10	3175394	1440	460.59668463172
10	3271885	1460	474.1340657591
10	3370118	1480	520.4679245283
10	3471567	1500	560.36336477987
10	3574449	1520	569.62463076574
10	3679549	1540	573.18018632129
10	3786777	1560	606.90868930267
10	3896965	1580	643.77050717841
10	4008719	1600	654.75081162975
10	4123496	1620	660.66693351897
10	4240809	1640	687.21424148607
10	4360185	1660	697.40990712074
10	4481530	1680	705.94117647059
10	4605523	1700	731.00894192846
10	4731224	1720	724.88998357964
10	4858572	1740	727.69970779221
10	4988849	1760	724.6288998358
10	5122751	1780	765.34031613026
10	5257571	1800	774.92718598958
10	5395489	1820	801.17725015518
10	5535250	1840	813.86728188938
10	5677435	1860	812.49483941473
10	5823082	1880	877.55120464608
10	5970988	1900	853.69087075315
10	6120788	1920	882.61784831235
10	6273100	1940	902.18352486062
10	6428323	1960	921.37104581785
10	6586322	1980	921.74196748416
10	6745774	2000	964.37189308349
11	145846	240	0
11	171867	260	420.60668088316
11	199164	280	415.56938600536
11	226264	300	230.3732503217
11	253377	320	371.63622206198
11	280340	340	137.32573082168
11	307309	360	370.85908805844
11	334518	380	276.73782085935
11	362209	400	142.90117631448
11	389597	420	423.53803435638
11	417445	440	606.20471738683
11	445947	460	524.39952217279
11	474687	480	331.18780309327
11	504155	500	466.47700750879
11	533643	520	328.65557251026
11	563940	540	469.17593649366
11	595178	560	327.48628916021
11	626754	580	376.03145207347
11	659265	600	320.9934384115
11	692580	620	279.17939766339
11	726770	640	137.83418334371
11	761869	660	375.33121526758
11	798263	680	574.03700129626
11	835171	700	380.48140458807
11	873577	720	422.98542739405
11	913292	740	328.70210696152
11	954251	760	478.3495167822
11	995801	780	383.48350782981
11	1039512	800	468.69647683885
11	1083886	820	371.44399509998
11	1129269	840	423.25478136668
11	1176106	860	427.1033995239
11	1224065	880	374.71049236941
11	1273154	900	432.07974658201
11	1323264	920	284.61002710107
11	1374366	940	528.62505753146
11	1427221	960	564.69913459309
11	1481111	980	477.22820700977
11	1536329	1000	277.77649182635
11	1593324	1020	516.72379277354
11	1651031	1040	426.17211518275
11	1710063	1060	432.95624045473
11	1771081	1080	573.76808968793
11	1834223	1100	283.22374911467
11	1898836	1120	195.89332521385
11	1964219	1140	479.78118783043
11	2031093	1160	669.93387578427
11	2099887	1180	867.33296418074
11	2171040	1200	567.08431373282
11	2243456	1220	668.19415100241
11	2316927	1240	480.0596871587
11	2393293	1260	440.95890530072
11	2471883	1280	584.34191286041
11	2552677	1300	532.19209377398
11	2635348	1320	284.3696607174
11	2720017	1340	194.36134936116
11	2807514	1360	527.65691063404
11	2896178	1380	286.84344851901
11	2987139	1400	375.8072866601
11	3080079	1420	529.62835445332
11	3175394	1440	329.31513936385
11	3271885	1460	327.05975968002
11	3370118	1480	428.98908257455
11	3471567	1500	427.27933089442
11	3574449	1520	329.84089259747
11	3679549	1540	382.12790616198
11	3786777	1560	628.95035740639
11	3896965	1580	667.16714013513
11	4008719	1600	586.22777143926
11	4123496	1620	331.75902954295
11	4240809	1640	472.92584264559
11	4360185	1660	678.89193344103
11	4481530	1680	538.72613575906
11	4605523	1700	382.98420840476
11	4731224	1720	382.88161077885
11	4858572	1740	676.77337037485
11	4988849	1760	383.13204601331
11	5122751	1780	476.84619267545
11	5257571	1800	812.99212237266
11	5395489	1820	872.19061890612
11	5535250	1840	663.36816041244
11	5677435	1860	761.03237803032
11	5823082	1880	522.32823535832
11	5970988	1900	432.29964078346
11	6120788	1920	587.88243311201
11	6273100	1940	692.65888104238
11	6428323	1960	684.29526927875
11	6586322	1980	769.46360269022
11	6745774	2000	664.2343494588
12	145846	240	nan
12	171867	260	46.734075653684
12	199164	280	46.174376222817
12	226264	300	46.07465006434
12	253377	320	46.454527757747
12	280340	340	45.775243607227
12	307309	360	46.357386007305
12	334518	380	46.122970143226
12	362209	400	47.63372543816
12	389597	420	47.059781595153
12	417445	440	46.631132106679
12	445947	460	47.67268383389
12	474687	480	47.312543299039
12	504155	500	46.647700750879
12	533643	520	46.950796072894
12	563940	540	46.917593649366
12	595178	560	46.783755594315
12	626754	580	47.003931509184
12	659265	600	45.856205487358
12	692580	620	46.529899610566
12	726770	640	45.944727781237
12	761869	660	46.916401908447
12	798263	680	47.836416774688
12	835171	700	47.560175573509
12	873577	720	46.998380821561
12	913292	740	46.957443851646
12	954251	760	47.83495167822
12	995801	780	47.935438478726
12	1039512	800	46.869647683885
12	1083886	820	46.430499387497
12	1129269	840	47.028309040742
12	1176106	860	47.455933280433
12	1224065	880	46.838811546176
12	1273154	900	48.008860731335
12	1323264	920	47.435004516844
12	1374366	940	48.056823411951
12	1427221	960	47.058261216091
12	1481111	980	47.722820700977
12	1536329	1000	46.296081971058
12	1593324	1020	46.97489025214
12	1651031	1040	47.352457242528
12	1710063	1060	48.106248939415
12	1771081	1080	47.814007473994
12	1834223	1100	47.203958185779
12	1898836	1120	48.973331303462
12	1964219	1140	47.978118783043
12	2031093	1160	47.852419698876
12	2099887	1180	48.185164676708
12	2171040	1200	47.257026144401
12	2243456	1220	47.728153643029
12	2316927	1240	48.00596871587
12	2393293	1260	48.995433922302
12	2471883	1280	48.695159405034
12	2552677	1300	48.381099433999
12	2635348	1320	47.3949434529
12	2720017	1340	48.59033734029
12	2807514	1360	47.96881005764
12	2896178	1380	47.807241419835