version 2
run statisticRVV-152-20150327-08:57:06-6864
attr c 9
attr configname statisticRVV
attr datetime 20150327-08:57:06
attr experiment statisticRVV
attr inifile omnetpp.ini
attr iterationvars "$sc=\"erlangen-medium.launchd.xml\", $p=1/10, $c=9"
attr iterationvars2 "$sc=\"erlangen-medium.launchd.xml\", $p=1/10, $c=9, $repetition=2"
attr measurement "$sc=\"erlangen-medium.launchd.xml\", $p=1/10, $c=9"
attr network RSUExampleScenario
attr p 1/10
attr processid 6864
attr repetition 2
attr replication #2
attr resultdir results
attr runnumber 152
attr sc "\"erlangen-medium.launchd.xml\""
attr seedset 152

vector 0  RSUExampleScenario.rsu[0].appl  Number_CH  ETV
vector 1  RSUExampleScenario.rsu[0].appl  Number_ON  ETV
vector 2  RSUExampleScenario.rsu[0].appl  Number_FN  ETV
vector 3  RSUExampleScenario.rsu[0].appl  Number_CH_Losts  ETV
vector 4  RSUExampleScenario.rsu[0].appl  Number_CH_Losts  ETV
vector 5  RSUExampleScenario.rsu[0].appl  Mean_Cluster_Size  ETV
vector 6  RSUExampleScenario.rsu[0].appl  StdDev_Cluster_Size  ETV
vector 7  RSUExampleScenario.rsu[0].appl  Variance_Cluster_Size  ETV
vector 8  RSUExampleScenario.rsu[0].appl  Mean_Neighbors  ETV
vector 9  RSUExampleScenario.rsu[0].appl  StdDev_Neighbors  ETV
vector 10  RSUExampleScenario.rsu[0].appl  Variance_Neighbors  ETV
vector 11  RSUExampleScenario.rsu[0].appl  Total_CH_Utility  ETV
vector 12  RSUExampleScenario.rsu[0].appl  Mean_CH_Utility  ETV
vector 13  RSUExampleScenario.rsu[0].appl  StdDev_CH_Utility  ETV
vector 14  RSUExampleScenario.rsu[0].appl  Variance_CH_Utility  ETV
vector 15  RSUExampleScenario.rsu[0].appl  Total_exp_CH_Utility  ETV
vector 16  RSUExampleScenario.rsu[0].appl  Mean_exp_CH_Utility  ETV
vector 17  RSUExampleScenario.rsu[0].appl  StdDev_exp_CH_Utility  ETV
vector 18  RSUExampleScenario.rsu[0].appl  Variance_exp_CH_Utility  ETV
vector 19  RSUExampleScenario.rsu[0].appl  Total_ON_Utility  ETV
vector 20  RSUExampleScenario.rsu[0].appl  Mean_ON_Utility  ETV
vector 21  RSUExampleScenario.rsu[0].appl  StdDev_ON_Utility  ETV
vector 22  RSUExampleScenario.rsu[0].appl  Variance_ON_Utility  ETV
vector 23  RSUExampleScenario.rsu[0].appl  Total_exp_ON_Utility  ETV
vector 24  RSUExampleScenario.rsu[0].appl  Mean_exp_ON_Utility  ETV
vector 25  RSUExampleScenario.rsu[0].appl  StdDev_exp_ON_Utility  ETV
vector 26  RSUExampleScenario.rsu[0].appl  Variance_exp_ON_Utility  ETV
0	144958	240	7
0	170986	260	10
0	198252	280	10
0	225309	300	9
0	252739	320	7
0	280038	340	6
0	307462	360	7
0	335020	380	5
0	362981	400	8
0	390842	420	5
0	419540	440	9
0	448860	460	8
0	478532	480	9
0	509020	500	8
0	540271	520	9
0	572176	540	5
0	604455	560	8
0	637610	580	5
0	671777	600	6
0	706961	620	14
0	742915	640	11
0	779893	660	8
0	818076	680	16
0	857567	700	14
0	898582	720	7
0	940093	740	12
0	983558	760	16
0	1028327	780	13
0	1074231	800	13
0	1120605	820	13
0	1168280	840	14
0	1216565	860	4
0	1266678	880	17
0	1318307	900	12
0	1370876	920	11
0	1424461	940	14
0	1480105	960	13
0	1536438	980	16
0	1593892	1000	16
0	1652573	1020	17
0	1713652	1040	9
0	1775703	1060	13
0	1839752	1080	12
0	1905308	1100	10
0	1972559	1120	16
0	2041412	1140	8
0	2112131	1160	13
0	2184651	1180	12
0	2258505	1200	19
0	2335354	1220	15
0	2413602	1240	13
0	2493223	1260	16
0	2575541	1280	14
0	2659093	1300	18
0	2744825	1320	19
0	2832722	1340	17
0	2922268	1360	14
0	3015226	1380	15
0	3109376	1400	16
0	3206146	1420	21
0	3304101	1440	18
0	3405068	1460	15
0	3508857	1480	22
0	3615105	1500	17
0	3723397	1520	22
0	3834629	1540	22
0	3947052	1560	24
0	4062675	1580	17
0	4179483	1600	17
0	4299820	1620	18
0	4422121	1640	14
0	4546054	1660	19
0	4672891	1680	19
0	4801801	1700	15
0	4934213	1720	21
0	5067970	1740	15
0	5205180	1760	25
0	5344043	1780	21
0	5485530	1800	19
0	5628683	1820	20
0	5774637	1840	29
0	5923279	1860	18
0	6074054	1880	18
0	6227163	1900	26
0	6383479	1920	15
0	6543537	1940	25
0	6705814	1960	21
0	6869807	1980	20
0	7036332	2000	27
1	144958	240	48
1	170986	260	59
1	198252	280	57
1	225309	300	55
1	252739	320	45
1	280038	340	47
1	307462	360	54
1	335020	380	42
1	362981	400	50
1	390842	420	39
1	419540	440	62
1	448860	460	49
1	478532	480	62
1	509020	500	59
1	540271	520	62
1	572176	540	37
1	604455	560	58
1	637610	580	44
1	671777	600	40
1	706961	620	80
1	742915	640	84
1	779893	660	63
1	818076	680	92
1	857567	700	87
1	898582	720	55
1	940093	740	79
1	983558	760	91
1	1028327	780	74
1	1074231	800	85
1	1120605	820	87
1	1168280	840	93
1	1216565	860	36
1	1266678	880	86
1	1318307	900	84
1	1370876	920	79
1	1424461	940	91
1	1480105	960	78
1	1536438	980	101
1	1593892	1000	90
1	1652573	1020	89
1	1713652	1040	73
1	1775703	1060	77
1	1839752	1080	86
1	1905308	1100	84
1	1972559	1120	107
1	2041412	1140	67
1	2112131	1160	96
1	2184651	1180	94
1	2258505	1200	104
1	2335354	1220	103
1	2413602	1240	97
1	2493223	1260	92
1	2575541	1280	94
1	2659093	1300	122
1	2744825	1320	113
1	2832722	1340	89
1	2922268	1360	92
1	3015226	1380	101
1	3109376	1400	111
1	3206146	1420	121
1	3304101	1440	112
1	3405068	1460	105
1	3508857	1480	120
1	3615105	1500	121
1	3723397	1520	123
1	3834629	1540	130
1	3947052	1560	131
1	4062675	1580	110
1	4179483	1600	116
1	4299820	1620	115
1	4422121	1640	107
1	4546054	1660	129
1	4672891	1680	117
1	4801801	1700	99
1	4934213	1720	135
1	5067970	1740	113
1	5205180	1760	135
1	5344043	1780	135
1	5485530	1800	123
1	5628683	1820	127
1	5774637	1840	152
1	5923279	1860	125
1	6074054	1880	122
1	6227163	1900	141
1	6383479	1920	101
1	6543537	1940	144
1	6705814	1960	130
1	6869807	1980	138
1	7036332	2000	146
2	144958	240	23
2	170986	260	17
2	198252	280	25
2	225309	300	29
2	252739	320	42
2	280038	340	40
2	307462	360	34
2	335020	380	47
2	362981	400	38
2	390842	420	51
2	419540	440	26
2	448860	460	42
2	478532	480	28
2	509020	500	34
2	540271	520	32
2	572176	540	64
2	604455	560	39
2	637610	580	57
2	671777	600	63
2	706961	620	15
2	742915	640	15
2	779893	660	39
2	818076	680	6
2	857567	700	13
2	898582	720	55
2	940093	740	25
2	983558	760	10
2	1028327	780	32
2	1074231	800	21
2	1120605	820	21
2	1168280	840	15
2	1216565	860	86
2	1266678	880	22
2	1318307	900	31
2	1370876	920	38
2	1424461	940	25
2	1480105	960	40
2	1536438	980	14
2	1593892	1000	27
2	1652573	1020	28
2	1713652	1040	52
2	1775703	1060	47
2	1839752	1080	41
2	1905308	1100	44
2	1972559	1120	17
2	2041412	1140	65
2	2112131	1160	32
2	2184651	1180	39
2	2258505	1200	19
2	2335354	1220	30
2	2413602	1240	37
2	2493223	1260	38
2	2575541	1280	42
2	2659093	1300	11
2	2744825	1320	21
2	2832722	1340	49
2	2922268	1360	47
2	3015226	1380	40
2	3109376	1400	29
2	3206146	1420	16
2	3304101	1440	30
2	3405068	1460	41
2	3508857	1480	20
2	3615105	1500	28
2	3723397	1520	21
2	3834629	1540	14
2	3947052	1560	11
2	4062675	1580	41
2	4179483	1600	36
2	4299820	1620	39
2	4422121	1640	54
2	4546054	1660	25
2	4672891	1680	38
2	4801801	1700	61
2	4934213	1720	22
2	5067970	1740	51
2	5205180	1760	21
2	5344043	1780	25
2	5485530	1800	41
2	5628683	1820	37
2	5774637	1840	5
2	5923279	1860	43
2	6074054	1880	46
2	6227163	1900	21
2	6383479	1920	74
2	6543537	1940	23
2	6705814	1960	42
2	6869807	1980	35
2	7036332	2000	23
3	144958	240	0
3	170986	260	0
3	198252	280	2
3	225309	300	0
3	252739	320	0
3	280038	340	0
3	307462	360	0
3	335020	380	0
3	362981	400	1
3	390842	420	0
3	419540	440	1
3	448860	460	0
3	478532	480	0
3	509020	500	0
3	540271	520	0
3	572176	540	1
3	604455	560	1
3	637610	580	0
3	671777	600	0
3	706961	620	0
3	742915	640	0
3	779893	660	1
3	818076	680	1
3	857567	700	0
3	898582	720	0
3	940093	740	0
3	983558	760	1
3	1028327	780	2
3	1074231	800	0
3	1120605	820	0
3	1168280	840	0
3	1216565	860	0
3	1266678	880	0
3	1318307	900	0
3	1370876	920	1
3	1424461	940	0
3	1480105	960	0
3	1536438	980	0
3	1593892	1000	0
3	1652573	1020	0
3	1713652	1040	0
3	1775703	1060	0
3	1839752	1080	0
3	1905308	1100	0
3	1972559	1120	0
3	2041412	1140	0
3	2112131	1160	0
3	2184651	1180	0
3	2258505	1200	0
3	2335354	1220	0
3	2413602	1240	2
3	2493223	1260	0
3	2575541	1280	0
3	2659093	1300	0
3	2744825	1320	0
3	2832722	1340	1
3	2922268	1360	0
3	3015226	1380	0
3	3109376	1400	0
3	3206146	1420	0
3	3304101	1440	0
3	3405068	1460	1
3	3508857	1480	1
3	3615105	1500	1
3	3723397	1520	0
3	3834629	1540	0
3	3947052	1560	0
3	4062675	1580	0
3	4179483	1600	0
3	4299820	1620	1
3	4422121	1640	1
3	4546054	1660	0
3	4672891	1680	0
3	4801801	1700	0
3	4934213	1720	0
3	5067970	1740	1
3	5205180	1760	0
3	5344043	1780	0
3	5485530	1800	1
3	5628683	1820	1
3	5774637	1840	1
3	5923279	1860	0
3	6074054	1880	0
3	6227163	1900	0
3	6383479	1920	1
3	6543537	1940	0
3	6705814	1960	0
3	6869807	1980	1
3	7036332	2000	0
4	144958	240	23
4	170986	260	17
4	198252	280	23
4	225309	300	29
4	252739	320	42
4	280038	340	40
4	307462	360	33
4	335020	380	47
4	362981	400	37
4	390842	420	51
4	419540	440	25
4	448860	460	42
4	478532	480	28
4	509020	500	34
4	540271	520	32
4	572176	540	63
4	604455	560	38
4	637610	580	57
4	671777	600	63
4	706961	620	15
4	742915	640	15
4	779893	660	38
4	818076	680	5
4	857567	700	13
4	898582	720	55
4	940093	740	25
4	983558	760	8
4	1028327	780	30
4	1074231	800	21
4	1120605	820	21
4	1168280	840	15
4	1216565	860	86
4	1266678	880	22
4	1318307	900	31
4	1370876	920	37
4	1424461	940	24
4	1480105	960	40
4	1536438	980	13
4	1593892	1000	27
4	1652573	1020	28
4	1713652	1040	52
4	1775703	1060	47
4	1839752	1080	40
4	1905308	1100	44
4	1972559	1120	16
4	2041412	1140	65
4	2112131	1160	31
4	2184651	1180	39
4	2258505	1200	19
4	2335354	1220	30
4	2413602	1240	35
4	2493223	1260	38
4	2575541	1280	42
4	2659093	1300	11
4	2744825	1320	21
4	2832722	1340	48
4	2922268	1360	47
4	3015226	1380	40
4	3109376	1400	29
4	3206146	1420	16
4	3304101	1440	30
4	3405068	1460	40
4	3508857	1480	19
4	3615105	1500	26
4	3723397	1520	21
4	3834629	1540	14
4	3947052	1560	11
4	4062675	1580	41
4	4179483	1600	36
4	4299820	1620	38
4	4422121	1640	53
4	4546054	1660	24
4	4672891	1680	38
4	4801801	1700	61
4	4934213	1720	22
4	5067970	1740	50
4	5205180	1760	21
4	5344043	1780	25
4	5485530	1800	40
4	5628683	1820	36
4	5774637	1840	4
4	5923279	1860	43
4	6074054	1880	46
4	6227163	1900	21
4	6383479	1920	72
4	6543537	1940	22
4	6705814	1960	42
4	6869807	1980	34
4	7036332	2000	23
5	144958	240	6.8571428571429
5	170986	260	5.9
5	198252	280	5.7
5	225309	300	6.1111111111111
5	252739	320	6.4285714285714
5	280038	340	7.8333333333333
5	307462	360	7.7142857142857
5	335020	380	8.4
5	362981	400	6.25
5	390842	420	7.8
5	419540	440	6.8888888888889
5	448860	460	6.125
5	478532	480	6.8888888888889
5	509020	500	7.375
5	540271	520	6.8888888888889
5	572176	540	7.4
5	604455	560	7.25
5	637610	580	8.8
5	671777	600	6.6666666666667
5	706961	620	5.7142857142857
5	742915	640	7.6363636363636
5	779893	660	7.875
5	818076	680	5.75
5	857567	700	6.2142857142857
5	898582	720	7.8571428571429
5	940093	740	6.5833333333333
5	983558	760	5.6875
5	1028327	780	5.6923076923077
5	1074231	800	6.5384615384615
5	1120605	820	6.6923076923077
5	1168280	840	6.6428571428571
5	1216565	860	9
5	1266678	880	5.0588235294118
5	1318307	900	7
5	1370876	920	7.1818181818182
5	1424461	940	6.5
5	1480105	960	6
5	1536438	980	6.3125
5	1593892	1000	5.625
5	1652573	1020	5.2352941176471
5	1713652	1040	8.1111111111111
5	1775703	1060	5.9230769230769
5	1839752	1080	7.1666666666667
5	1905308	1100	8.4
5	1972559	1120	6.6875
5	2041412	1140	8.375
5	2112131	1160	7.3846153846154
5	2184651	1180	7.8333333333333
5	2258505	1200	5.4736842105263
5	2335354	1220	6.8666666666667
5	2413602	1240	7.4615384615385
5	2493223	1260	5.75
5	2575541	1280	6.7142857142857
5	2659093	1300	6.7777777777778
5	2744825	1320	5.9473684210526
5	2832722	1340	5.2352941176471
5	2922268	1360	6.5714285714286
5	3015226	1380	6.7333333333333
5	3109376	1400	6.9375
5	3206146	1420	5.7619047619048
5	3304101	1440	6.2222222222222
5	3405068	1460	7
5	3508857	1480	5.4545454545455
5	3615105	1500	7.1176470588235
5	3723397	1520	5.5909090909091
5	3834629	1540	5.9090909090909
5	3947052	1560	5.4583333333333
5	4062675	1580	6.4705882352941
5	4179483	1600	6.8235294117647
5	4299820	1620	6.3888888888889
5	4422121	1640	7.6428571428571
5	4546054	1660	6.7894736842105
5	4672891	1680	6.1578947368421
5	4801801	1700	6.6
5	4934213	1720	6.4285714285714
5	5067970	1740	7.5333333333333
5	5205180	1760	5.4
5	5344043	1780	6.4285714285714
5	5485530	1800	6.4736842105263
5	5628683	1820	6.35
5	5774637	1840	5.2413793103448
5	5923279	1860	6.9444444444444
5	6074054	1880	6.7777777777778
5	6227163	1900	5.4230769230769
5	6383479	1920	6.7333333333333
5	6543537	1940	5.76
5	6705814	1960	6.1904761904762
5	6869807	1980	6.9
5	7036332	2000	5.4074074074074
6	144958	240	2.1157009420498
6	170986	260	1.852925614625
6	198252	280	2.4517567397911
6	225309	300	2.5712081034236
6	252739	320	2.8199966227606
6	280038	340	1.3291601358251
6	307462	360	1.8898223650461
6	335020	380	0.54772255750517
6	362981	400	1.4880476182857
6	390842	420	1.0954451150103
6	419540	440	2.315407331575
6	448860	460	2.4164614034339
6	478532	480	1.6914819275154
6	509020	500	1.1877349391654
6	540271	520	2.8037673068768
6	572176	540	2.0736441353328
6	604455	560	2.3754698783308
6	637610	580	0.44721359549996
6	671777	600	2.2509257354846
6	706961	620	1.9778998741311
6	742915	640	1.3618169680781
6	779893	660	0.99103120896511
6	818076	680	2.1134489978863
6	857567	700	2.6363894724698
6	898582	720	1.0690449676497
6	940093	740	1.8319554050415
6	983558	760	2.4143667216615
6	1028327	780	2.5293153020997
6	1074231	800	2.4019223070763
6	1120605	820	2.2503560971772
6	1168280	840	1.864945569721
6	1216565	860	0
6	1266678	880	2.6802655706873
6	1318307	900	2.0889318714684
6	1370876	920	2.7502066038093
6	1424461	940	2.028641076037
6	1480105	960	2.4494897427832
6	1536438	980	2.6259918760981
6	1593892	1000	3.1806707887907
6	1652573	1020	2.5624551646006
6	1713652	1040	1.269295517644
6	1775703	1060	2.4651415936865
6	1839752	1080	2.2087978356536
6	1905308	1100	0.6992058987801
6	1972559	1120	2.1515498289992
6	2041412	1140	0.51754916950677
6	2112131	1160	1.2608503439122
6	2184651	1180	1.4034589305345
6	2258505	1200	2.2698120590978
6	2335354	1220	1.9223002094465
6	2413602	1240	2.436369724795
6	2493223	1260	3.1304951684997
6	2575541	1280	2.6436737675082
6	2659093	1300	1.8647048514461
6	2744825	1320	2.6765168951566
6	2832722	1340	2.7957425615725
6	2922268	1360	1.9889806323954
6	3015226	1380	2.4043611170023
6	3109376	1400	2.3514180118955
6	3206146	1420	2.5671922776598
6	3304101	1440	2.5334365304058
6	3405068	1460	1.4142135623731
6	3508857	1480	2.8406450093709
6	3615105	1500	2.1471595463885
6	3723397	1520	2.442853345482
6	3834629	1540	2.286796280703
6	3947052	1560	2.5534148774204
6	4062675	1580	2.3483410915693
6	4179483	1600	2.1574085762103
6	4299820	1620	2.3298293017222
6	4422121	1640	1.3363062095621
6	4546054	1660	1.5121341566152
6	4672891	1680	2.5224141411384
6	4801801	1700	2.472708174105
6	4934213	1720	2.0873770280289
6	5067970	1740	1.2459458063579
6	5205180	1760	2.3094010767585
6	5344043	1780	2.111194651647
6	5485530	1800	2.2941573387056
6	5628683	1820	2.4978938496683
6	5774637	1840	2.1155069033516
6	5923279	1860	2.0996420485469
6	6074054	1880	1.5167905573187
6	6227163	1900	2.4685716829467
6	6383479	1920	1.9073791542573
6	6543537	1940	2.7580186124583
6	6705814	1960	2.694792155604
6	6869807	1980	2.125038699338
6	7036332	2000	2.2745964859265
7	144958	240	4.4761904761905
7	170986	260	3.4333333333333
7	198252	280	6.0111111111111
7	225309	300	6.6111111111111
7	252739	320	7.952380952381
7	280038	340	1.7666666666667
7	307462	360	3.5714285714286
7	335020	380	0.3
7	362981	400	2.2142857142857
7	390842	420	1.2
7	419540	440	5.3611111111111
7	448860	460	5.8392857142857
7	478532	480	2.8611111111111
7	509020	500	1.4107142857143
7	540271	520	7.8611111111111
7	572176	540	4.3
7	604455	560	5.6428571428571
7	637610	580	0.2
7	671777	600	5.0666666666667
7	706961	620	3.9120879120879
7	742915	640	1.8545454545455
7	779893	660	0.98214285714286
7	818076	680	4.4666666666667
7	857567	700	6.9505494505495
7	898582	720	1.1428571428571
7	940093	740	3.3560606060606
7	983558	760	5.8291666666667
7	1028327	780	6.3974358974359
7	1074231	800	5.7692307692308
7	1120605	820	5.0641025641026
7	1168280	840	3.478021978022
7	1216565	860	0
7	1266678	880	7.1838235294118
7	1318307	900	4.3636363636364
7	1370876	920	7.5636363636364
7	1424461	940	4.1153846153846
7	1480105	960	6
7	1536438	980	6.8958333333333
7	1593892	1000	10.116666666667
7	1652573	1020	6.5661764705882
7	1713652	1040	1.6111111111111
7	1775703	1060	6.0769230769231
7	1839752	1080	4.8787878787879
7	1905308	1100	0.48888888888889
7	1972559	1120	4.6291666666667
7	2041412	1140	0.26785714285714
7	2112131	1160	1.5897435897436
7	2184651	1180	1.969696969697
7	2258505	1200	5.1520467836257
7	2335354	1220	3.6952380952381
7	2413602	1240	5.9358974358974
7	2493223	1260	9.8
7	2575541	1280	6.989010989011
7	2659093	1300	3.4771241830065
7	2744825	1320	7.1637426900585
7	2832722	1340	7.8161764705882
7	2922268	1360	3.956043956044
7	3015226	1380	5.7809523809524
7	3109376	1400	5.5291666666667
7	3206146	1420	6.5904761904762
7	3304101	1440	6.4183006535948
7	3405068	1460	2
7	3508857	1480	8.0692640692641
7	3615105	1500	4.6102941176471
7	3723397	1520	5.9675324675325
7	3834629	1540	5.2294372294372
7	3947052	1560	6.5199275362319
7	4062675	1580	5.5147058823529
7	4179483	1600	4.6544117647059
7	4299820	1620	5.4281045751634
7	4422121	1640	1.7857142857143
7	4546054	1660	2.2865497076023
7	4672891	1680	6.3625730994152
7	4801801	1700	6.1142857142857
7	4934213	1720	4.3571428571429
7	5067970	1740	1.552380952381
7	5205180	1760	5.3333333333333
7	5344043	1780	4.4571428571429
7	5485530	1800	5.2631578947368
7	5628683	1820	6.2394736842105
7	5774637	1840	4.4753694581281
7	5923279	1860	4.4084967320261
7	6074054	1880	2.3006535947712
7	6227163	1900	6.0938461538462
7	6383479	1920	3.6380952380952
7	6543537	1940	7.6066666666667
7	6705814	1960	7.2619047619048
7	6869807	1980	4.5157894736842
7	7036332	2000	5.1737891737892
8	144958	240	22.935897435897
8	170986	260	22.441860465116
8	198252	280	22.282608695652
8	225309	300	22.322580645161
8	252739	320	22.297872340426
8	280038	340	22.215053763441
8	307462	360	22.585106382979
8	335020	380	22.606382978723
8	362981	400	21.989583333333
8	390842	420	22.242105263158
8	419540	440	22.185567010309
8	448860	460	22.070707070707
8	478532	480	22.242424242424
8	509020	500	22.653465346535
8	540271	520	22.368932038835
8	572176	540	22.5
8	604455	560	23
8	637610	580	23.141509433962
8	671777	600	23.522935779817
8	706961	620	23.651376146789
8	742915	640	24.390909090909
8	779893	660	25.027272727273
8	818076	680	24.710526315789
8	857567	700	26.078947368421
8	898582	720	26.555555555556
8	940093	740	26.887931034483
8	983558	760	27.603448275862
8	1028327	780	28
8	1074231	800	29.067226890756
8	1120605	820	28.900826446281
8	1168280	840	28.614754098361
8	1216565	860	28.944444444444
8	1266678	880	29.36
8	1318307	900	29.858267716535
8	1370876	920	30.3515625
8	1424461	940	30.511627906977
8	1480105	960	31.274809160305
8	1536438	980	31.461538461538
8	1593892	1000	32.293233082707
8	1652573	1020	32.313432835821
8	1713652	1040	33.067164179104
8	1775703	1060	33.109489051095
8	1839752	1080	34.18115942029
8	1905308	1100	34.630434782609
8	1972559	1120	35.294964028777
8	2041412	1140	35.878571428571
8	2112131	1160	37.071428571429
8	2184651	1180	36.551724137931
8	2258505	1200	37.964788732394
8	2335354	1220	38.5
8	2413602	1240	39.122448979592
8	2493223	1260	39.794520547945
8	2575541	1280	40.713333333333
8	2659093	1300	40.993377483444
8	2744825	1320	41.450980392157
8	2832722	1340	42.070967741935
8	2922268	1360	43.150326797386
8	3015226	1380	43.820512820513
8	3109376	1400	45.269230769231
8	3206146	1420	45.677215189873
8	3304101	1440	45.7125
8	3405068	1460	46.155279503106
8	3508857	1480	46.858024691358
8	3615105	1500	48.012121212121
8	3723397	1520	48.686746987952
8	3834629	1540	49.650602409639
8	3947052	1560	50.644578313253
8	4062675	1580	50.571428571429
8	4179483	1600	51.443786982249
8	4299820	1620	51.273255813953
8	4422121	1640	51.234285714286
8	4546054	1660	52.627906976744
8	4672891	1680	52.890804597701
8	4801801	1700	53.6
8	4934213	1720	54.02808988764
8	5067970	1740	54.441340782123
8	5205180	1760	55.011049723757
8	5344043	1780	55.580110497238
8	5485530	1800	55.825136612022
8	5628683	1820	56.690217391304
8	5774637	1840	56.736559139785
8	5923279	1860	58.005376344086
8	6074054	1880	58.521505376344
8	6227163	1900	58.824468085106
8	6383479	1920	59.571428571429
8	6543537	1940	60.476439790576
8	6705814	1960	60.880829015544
8	6869807	1980	61.269430051813
8	7036332	2000	61.505102040816
9	144958	240	4.9051781375168
9	170986	260	4.5674156707828
9	198252	280	4.7168766136137
9	225309	300	4.8188066588844
9	252739	320	4.6946086379056
9	280038	340	3.9914295749049
9	307462	360	4.0332211158336
9	335020	380	4.4990275773852
9	362981	400	4.6350944841711
9	390842	420	4.739413262621
9	419540	440	4.3835152772138
9	448860	460	5.0127440146265
9	478532	480	4.300191996404
9	509020	500	4.3091429392963
9	540271	520	3.6835359484565
9	572176	540	4.5653978077334
9	604455	560	3.682077172968
9	637610	580	3.4570526374363
9	671777	600	3.5160908698577
9	706961	620	4.0719822881923
9	742915	640	3.3920994406876
9	779893	660	3.964195467526
9	818076	680	4.8201709003054
9	857567	700	5.2934167443216
9	898582	720	6.3875477519565
9	940093	740	6.1542089545344
9	983558	760	6.0947294555568
9	1028327	780	7.6689998906007
9	1074231	800	7.5775438671283
9	1120605	820	7.4480477964337
9	1168280	840	7.772006049805
9	1216565	860	8.0043043975657
9	1266678	880	8.1887018940536
9	1318307	900	9.0910076007888
9	1370876	920	9.5839349206363
9	1424461	940	10.112736615796
9	1480105	960	10.548097484391
9	1536438	980	10.688800083601
9	1593892	1000	11.259865677443
9	1652573	1020	11.732877724837
9	1713652	1040	12.031411120554
9	1775703	1060	12.613997146096
9	1839752	1080	13.297404119232
9	1905308	1100	13.347722453666
9	1972559	1120	14.161313517544
9	2041412	1140	14.385978313803
9	2112131	1160	15.034082553727
9	2184651	1180	15.661316034209
9	2258505	1200	15.925095932254
9	2335354	1220	16.612224005068
9	2413602	1240	17.181504056184
9	2493223	1260	17.537710230055
9	2575541	1280	18.569057276641
9	2659093	1300	18.644569071177
9	2744825	1320	19.494918763235
9	2832722	1340	19.688189378545
9	2922268	1360	19.867909606432
9	3015226	1380	20.743125461918
9	3109376	1400	22.141872798329
9	3206146	1420	22.150403365752
9	3304101	1440	22.254781833696
9	3405068	1460	23.165858230975
9	3508857	1480	23.828024443267
9	3615105	1500	24.058614368892
9	3723397	1520	25.085515661841
9	3834629	1540	25.425081262617
9	3947052	1560	25.667575362169
9	4062675	1580	26.128097943375
9	4179483	1600	26.320790711311
9	4299820	1620	26.89530894299
9	4422121	1640	26.872345555701
9	4546054	1660	26.975642689612
9	4672891	1680	26.579461548863
9	4801801	1700	27.434352154934
9	4934213	1720	27.922699951868
9	5067970	1740	28.067548345061
9	5205180	1760	28.410481037477
9	5344043	1780	28.579721676371
9	5485530	1800	29.039609589638
9	5628683	1820	28.989855243797
9	5774637	1840	29.145310818227
9	5923279	1860	29.574733063944
9	6074054	1880	29.775957467846
9	6227163	1900	30.248278109548
9	6383479	1920	30.43341928076
9	6543537	1940	30.402358286216
9	6705814	1960	31.145346350766
9	6869807	1980	31.400470209234
9	7036332	2000	31.395818347881
10	144958	240	24.060772560773
10	170986	260	20.861285909713
10	198252	280	22.248924988055
10	225309	300	23.220897615708
10	252739	320	22.039350263098
10	280038	340	15.931510051426
10	307462	360	16.266872569206
10	335020	380	20.241249142073
10	362981	400	21.484100877193
10	390842	420	22.462038073908
10	419540	440	19.215206185567
10	448860	460	25.127602556174
10	478532	480	18.491651205937
10	509020	500	18.568712871287
10	540271	520	13.568437083571
10	572176	540	20.842857142857
10	604455	560	13.557692307692
10	637610	580	11.951212938005
10	671777	600	12.362895005097
10	706961	620	16.581039755352
10	742915	640	11.506338615513
10	779893	660	15.714845704754
10	818076	680	23.234047508151
10	857567	700	28.020260829064
10	898582	720	40.800766283525
10	940093	740	37.874287856072
10	983558	760	37.145727136432
10	1028327	780	58.813559322034
10	1074231	800	57.419171058254
10	1120605	820	55.473415977961
10	1168280	840	60.404078038206
10	1216565	860	64.068888888889
10	1266678	880	67.054838709677
10	1318307	900	82.6464191976
10	1370876	920	91.851808562992
10	1424461	940	102.26744186047
10	1480105	960	111.26236054022
10	1536438	980	114.25044722719
10	1593892	1000	126.78457507405
10	1652573	1020	137.66041970598
10	1713652	1040	144.75485355179
10	1775703	1060	159.11292400172
10	1839752	1080	176.82095631017
10	1905308	1100	178.1616947001
10	1972559	1120	200.54280054217
10	2041412	1140	206.95637204522
10	2112131	1160	226.02363823227
10	2184651	1180	245.27681992337
10	2258505	1200	253.6086804515
10	2335354	1220	275.96598639456
10	2413602	1240	295.20408163265
10	2493223	1260	307.57128011337
10	2575541	1280	344.80988814318
10	2659093	1300	347.61995584989
10	2744825	1320	380.05185758514
10	2832722	1340	387.62480100545
10	2922268	1360	394.73383212934
10	3015226	1380	430.27725392887
10	3109376	1400	490.26253101737
10	3206146	1420	490.6403692655
10	3304101	1440	495.27531446541
10	3405068	1460	536.65698757764
10	3508857	1480	567.77474886895
10	3615105	1500	578.81692535107
10	3723397	1520	629.28309602045
10	3834629	1540	646.43475721066
10	3947052	1560	658.82442497262
10	4062675	1580	682.67750213858
10	4179483	1600	692.78402366864
10	4299820	1620	723.35764313885
10	4422121	1640	722.12295566502
10	4546054	1660	727.68529851761
10	4672891	1680	706.46777622749
10	4801801	1700	752.64367816092
10	4934213	1720	779.67717260204
10	5067970	1740	787.78727010232
10	5205180	1760	807.15543278085
10	5344043	1780	816.80049109883
10	5485530	1800	843.2989251186
10	5628683	1820	840.41170705631
10	5774637	1840	849.44914269108
10	5923279	1860	874.66483580355
10	6074054	1880	886.607643127
10	6227163	1900	914.95832859256
10	6383479	1920	926.19300911854
10	6543537	1940	924.30338936346
10	6705814	1960	970.03259930915
10	6869807	1980	985.98952936097
10	7036332	2000	985.69740973312
11	144958	240	325.38192906581
11	170986	260	464.55085806487
11	198252	280	462.72980482525
11	225309	300	422.85880531415
11	252739	320	330.32650830729
11	280038	340	276.33090795238
11	307462	360	323.47725298962
11	335020	380	227.47758855589
11	362981	400	370.98230461618
11	390842	420	236.71992022938
11	419540	440	430.35782350534
11	448860	460	380.64604883278
11	478532	480	423.39190200483
11	509020	500	369.95651452737
11	540271	520	424.53491331993
11	572176	540	225.88374059929
11	604455	560	378.17907723976
11	637610	580	235.43810556712
11	671777	600	279.19845559647
11	706961	620	665.1216337327
11	742915	640	523.18554877369
11	779893	660	377.8424163281
11	818076	680	771.71833455985
11	857567	700	673.92836487949
11	898582	720	337.5043424143
11	940093	740	560.81110842332
11	983558	760	765.36022390575
11	1028327	780	608.95222162326
11	1074231	800	622.06725717941
11	1120605	820	622.72473962396
11	1168280	840	665.85839444506
11	1216565	860	190.08317086649
11	1266678	880	816.04621895373
11	1318307	900	572.59739509438
11	1370876	920	519.23300635812
11	1424461	940	666.84317428094
11	1480105	960	630.73771298447
11	1536438	980	756.48341303535
11	1593892	1000	768.63337247731
11	1652573	1020	806.05936321303
11	1713652	1040	427.83257723294
11	1775703	1060	628.10222272413
11	1839752	1080	571.95052253993
11	1905308	1100	476.78351899292
11	1972559	1120	762.1624881684
11	2041412	1140	379.20763694435
11	2112131	1160	617.17509928002
11	2184651	1180	575.16055892714
11	2258505	1200	923.1093627494
11	2335354	1220	715.98963060918
11	2413602	1240	631.54350633161
11	2493223	1260	776.50262853573
11	2575541	1280	678.34141492591
11	2659093	1300	867.33065931633
11	2744825	1320	937.53572520915
11	2832722	1340	831.94057280378
11	2922268	1360	666.99140117845
11	3015226	1380	719.98603244711
11	3109376	1400	774.83752715586
11	3206146	1420	1012.9333994462
11	3304101	1440	874.98076374119
11	3405068	1460	725.77818035328
11	3508857	1480	1082.3361022335
11	3615105	1500	827.91567747399
11	3723397	1520	1067.1693185991
11	3834629	1540	1063.6939900969
11	3947052	1560	1177.4959053055
11	4062675	1580	816.7037842177
11	4179483	1600	817.50871735439
11	4299820	1620	886.95173290581
11	4422121	1640	679.21349905211
11	4546054	1660	912.37598961447
11	4672891	1680	926.47082310588
11	4801801	1700	732.56339584034
11	4934213	1720	1013.7852030756
11	5067970	1740	712.66616231523
11	5205180	1760	1207.0168344385
11	5344043	1780	1025.447806614
11	5485530	1800	917.02714185612
11	5628683	1820	976.77254165586
11	5774637	1840	1426.5934286118
11	5923279	1860	881.65439829188
11	6074054	1880	874.43912238281
11	6227163	1900	1266.8230959844
11	6383479	1920	740.66022689014
11	6543537	1940	1226.7574644938
11	6705814	1960	1021.5834060438
11	6869807	1980	977.73741952857
11	7036332	2000	1313.0476773411
12	144958	240	46.483132723688
12	170986	260	46.455085806487
12	198252	280	46.272980482525
12	225309	300	46.984311701573
12	252739	320	47.189501186756
12	280038	340	46.055151325396
12	307462	360	46.211036141374
12	335020	380	45.495517711178
12	362981	400	46.372788077022
12	390842	420	47.343984045876
12	419540	440	47.817535945038
12	448860	460	47.580756104097
12	478532	480	47.043544667203
12	509020	500	46.244564315922
12	540271	520	47.170545924437
12	572176	540	45.176748119858
12	604455	560	47.272384654971
12	637610	580	47.087621113423
12	671777	600	46.533075932745
12	706961	620	47.508688123764
12	742915	640	47.56232261579
12	779893	660	47.230302041012
12	818076	680	48.232395909991
12	857567	700	48.137740348535
12	898582	720	48.214906059186
12	940093	740	46.734259035277
12	983558	760	47.83501399411
12	1028327	780	46.842478586404
12	1074231	800	47.851327475339
12	1120605	820	47.901903047997
12	1168280	840	47.561313888933
12	1216565	860	47.520792716622
12	1266678	880	48.002718761984
12	1318307	900	47.716449591198
12	1370876	920	47.203000578011
12	1424461	940	47.631655305782
12	1480105	960	48.51828561419
12	1536438	980	47.280213314709
12	1593892	1000	48.039585779832
12	1652573	1020	47.41525665959
12	1713652	1040	47.536953025882
12	1775703	1060	48.315555594164
12	1839752	1080	47.662543544994
12	1905308	1100	47.678351899292
12	1972559	1120	47.635155510525
12	2041412	1140	47.400954618044
12	2112131	1160	47.475007636925
12	2184651	1180	47.930046577262
12	2258505	1200	48.5847033026
12	2335354	1220	47.732642040612