version 2
run statisticRVV-83-20150327-02:42:19-13032
attr c 9
attr configname statisticRVV
attr datetime 20150327-02:42:19
attr experiment statisticRVV
attr inifile omnetpp.ini
attr iterationvars "$sc=\"erlangen-low.launchd.xml\", $p=1/8, $c=9"
attr iterationvars2 "$sc=\"erlangen-low.launchd.xml\", $p=1/8, $c=9, $repetition=3"
attr measurement "$sc=\"erlangen-low.launchd.xml\", $p=1/8, $c=9"
attr network RSUExampleScenario
attr p 1/8
attr processid 13032
attr repetition 3
attr replication #3
attr resultdir results
attr runnumber 83
attr sc "\"erlangen-low.launchd.xml\""
attr seedset 83

vector 0  RSUExampleScenario.rsu[0].appl  Number_CH  ETV
vector 1  RSUExampleScenario.rsu[0].appl  Number_ON  ETV
vector 2  RSUExampleScenario.rsu[0].appl  Number_FN  ETV
vector 3  RSUExampleScenario.rsu[0].appl  Number_CH_Losts  ETV
vector 4  RSUExampleScenario.rsu[0].appl  Number_CH_Losts  ETV
vector 5  RSUExampleScenario.rsu[0].appl  Mean_Cluster_Size  ETV
vector 6  RSUExampleScenario.rsu[0].appl  StdDev_Cluster_Size  ETV
vector 7  RSUExampleScenario.rsu[0].appl  Variance_Cluster_Size  ETV
vector 8  RSUExampleScenario.rsu[0].appl  Mean_Neighbors  ETV
vector 9  RSUExampleScenario.rsu[0].appl  StdDev_Neighbors  ETV
vector 10  RSUExampleScenario.rsu[0].appl  Variance_Neighbors  ETV
vector 11  RSUExampleScenario.rsu[0].appl  Total_CH_Utility  ETV
vector 12  RSUExampleScenario.rsu[0].appl  Mean_CH_Utility  ETV
vector 13  RSUExampleScenario.rsu[0].appl  StdDev_CH_Utility  ETV
vector 14  RSUExampleScenario.rsu[0].appl  Variance_CH_Utility  ETV
vector 15  RSUExampleScenario.rsu[0].appl  Total_exp_CH_Utility  ETV
vector 16  RSUExampleScenario.rsu[0].appl  Mean_exp_CH_Utility  ETV
vector 17  RSUExampleScenario.rsu[0].appl  StdDev_exp_CH_Utility  ETV
vector 18  RSUExampleScenario.rsu[0].appl  Variance_exp_CH_Utility  ETV
vector 19  RSUExampleScenario.rsu[0].appl  Total_ON_Utility  ETV
vector 20  RSUExampleScenario.rsu[0].appl  Mean_ON_Utility  ETV
vector 21  RSUExampleScenario.rsu[0].appl  StdDev_ON_Utility  ETV
vector 22  RSUExampleScenario.rsu[0].appl  Variance_ON_Utility  ETV
vector 23  RSUExampleScenario.rsu[0].appl  Total_exp_ON_Utility  ETV
vector 24  RSUExampleScenario.rsu[0].appl  Mean_exp_ON_Utility  ETV
vector 25  RSUExampleScenario.rsu[0].appl  StdDev_exp_ON_Utility  ETV
vector 26  RSUExampleScenario.rsu[0].appl  Variance_exp_ON_Utility  ETV
0	34386	240	2
0	39591	260	6
0	44932	280	5
0	50267	300	3
0	55618	320	5
0	60949	340	2
0	66181	360	6
0	71524	380	4
0	76773	400	2
0	82026	420	5
0	87377	440	5
0	92697	460	4
0	97914	480	2
0	103282	500	2
0	108684	520	6
0	113995	540	4
0	119245	560	6
0	124584	580	2
0	129909	600	4
0	135171	620	3
0	140469	640	2
0	145812	660	3
0	151171	680	4
0	156443	700	6
0	161748	720	4
0	167026	740	3
0	172383	760	4
0	177669	780	4
0	183006	800	10
0	188371	820	4
0	193716	840	4
0	198970	860	2
0	204374	880	7
0	209686	900	5
0	214939	920	6
0	220278	940	9
0	225622	960	5
0	230998	980	3
0	236303	1000	3
0	241642	1020	5
0	246975	1040	7
0	252225	1060	4
0	257599	1080	5
0	262968	1100	5
0	268203	1120	3
0	273469	1140	5
0	278881	1160	5
0	284173	1180	2
0	289494	1200	5
0	294912	1220	8
0	300365	1240	4
0	305714	1260	5
0	311045	1280	5
0	316390	1300	5
0	321735	1320	10
0	327022	1340	6
0	332254	1360	8
0	337599	1380	4
0	342919	1400	1
0	348303	1420	3
0	353608	1440	3
0	358857	1460	4
0	364170	1480	2
0	369432	1500	5
0	374901	1520	5
0	380183	1540	6
0	385471	1560	6
0	390833	1580	4
0	396056	1600	2
0	401216	1620	4
0	406508	1640	2
0	411815	1660	4
0	417118	1680	3
0	422443	1700	5
0	427697	1720	2
0	432900	1740	6
0	438134	1760	5
0	443525	1780	5
0	448882	1800	6
0	453803	1820	5
0	458099	1840	5
0	461845	1860	4
0	465125	1880	3
0	468039	1900	1
0	470505	1920	3
0	472553	1940	1
0	474113	1960	2
0	475183	1980	0
0	475735	2000	1
1	34386	240	7
1	39591	260	19
1	44932	280	18
1	50267	300	9
1	55618	320	15
1	60949	340	8
1	66181	360	17
1	71524	380	11
1	76773	400	6
1	82026	420	17
1	87377	440	10
1	92697	460	7
1	97914	480	10
1	103282	500	5
1	108684	520	16
1	113995	540	11
1	119245	560	8
1	124584	580	6
1	129909	600	12
1	135171	620	6
1	140469	640	11
1	145812	660	10
1	151171	680	12
1	156443	700	17
1	161748	720	9
1	167026	740	11
1	172383	760	12
1	177669	780	9
1	183006	800	17
1	188371	820	12
1	193716	840	8
1	198970	860	2
1	204374	880	18
1	209686	900	13
1	214939	920	8
1	220278	940	18
1	225622	960	12
1	230998	980	8
1	236303	1000	6
1	241642	1020	15
1	246975	1040	14
1	252225	1060	9
1	257599	1080	10
1	262968	1100	14
1	268203	1120	10
1	273469	1140	10
1	278881	1160	10
1	284173	1180	4
1	289494	1200	13
1	294912	1220	16
1	300365	1240	10
1	305714	1260	13
1	311045	1280	10
1	316390	1300	13
1	321735	1320	18
1	327022	1340	14
1	332254	1360	21
1	337599	1380	14
1	342919	1400	2
1	348303	1420	11
1	353608	1440	13
1	358857	1460	10
1	364170	1480	5
1	369432	1500	17
1	374901	1520	16
1	380183	1540	16
1	385471	1560	16
1	390833	1580	10
1	396056	1600	4
1	401216	1620	13
1	406508	1640	9
1	411815	1660	14
1	417118	1680	8
1	422443	1700	11
1	427697	1720	7
1	432900	1740	9
1	438134	1760	8
1	443525	1780	11
1	448882	1800	15
1	453803	1820	11
1	458099	1840	11
1	461845	1860	6
1	465125	1880	9
1	468039	1900	2
1	470505	1920	9
1	472553	1940	2
1	474113	1960	7
1	475183	1980	0
1	475735	2000	3
2	34386	240	30
2	39591	260	15
2	44932	280	17
2	50267	300	28
2	55618	320	21
2	60949	340	30
2	66181	360	17
2	71524	380	25
2	76773	400	32
2	82026	420	17
2	87377	440	26
2	92697	460	31
2	97914	480	27
2	103282	500	33
2	108684	520	18
2	113995	540	25
2	119245	560	27
2	124584	580	32
2	129909	600	24
2	135171	620	31
2	140469	640	27
2	145812	660	26
2	151171	680	24
2	156443	700	17
2	161748	720	26
2	167026	740	27
2	172383	760	25
2	177669	780	26
2	183006	800	13
2	188371	820	25
2	193716	840	28
2	198970	860	36
2	204374	880	15
2	209686	900	22
2	214939	920	25
2	220278	940	13
2	225622	960	24
2	230998	980	29
2	236303	1000	32
2	241642	1020	20
2	246975	1040	20
2	252225	1060	27
2	257599	1080	25
2	262968	1100	21
2	268203	1120	27
2	273469	1140	25
2	278881	1160	25
2	284173	1180	33
2	289494	1200	23
2	294912	1220	17
2	300365	1240	27
2	305714	1260	22
2	311045	1280	25
2	316390	1300	22
2	321735	1320	13
2	327022	1340	20
2	332254	1360	11
2	337599	1380	22
2	342919	1400	38
2	348303	1420	27
2	353608	1440	25
2	358857	1460	27
2	364170	1480	34
2	369432	1500	19
2	374901	1520	20
2	380183	1540	19
2	385471	1560	18
2	390833	1580	26
2	396056	1600	33
2	401216	1620	23
2	406508	1640	29
2	411815	1660	22
2	417118	1680	30
2	422443	1700	26
2	427697	1720	32
2	432900	1740	26
2	438134	1760	27
2	443525	1780	26
2	448882	1800	19
2	453803	1820	21
2	458099	1840	17
2	461845	1860	20
2	465125	1880	16
2	468039	1900	21
2	470505	1920	9
2	472553	1940	15
2	474113	1960	5
2	475183	1980	11
2	475735	2000	4
3	34386	240	0
3	39591	260	0
3	44932	280	0
3	50267	300	0
3	55618	320	0
3	60949	340	1
3	66181	360	0
3	71524	380	1
3	76773	400	1
3	82026	420	0
3	87377	440	0
3	92697	460	0
3	97914	480	0
3	103282	500	0
3	108684	520	1
3	113995	540	0
3	119245	560	0
3	124584	580	1
3	129909	600	0
3	135171	620	0
3	140469	640	0
3	145812	660	0
3	151171	680	0
3	156443	700	0
3	161748	720	0
3	167026	740	1
3	172383	760	0
3	177669	780	1
3	183006	800	0
3	188371	820	1
3	193716	840	0
3	198970	860	0
3	204374	880	3
3	209686	900	0
3	214939	920	0
3	220278	940	4
3	225622	960	1
3	230998	980	1
3	236303	1000	0
3	241642	1020	0
3	246975	1040	0
3	252225	1060	2
3	257599	1080	0
3	262968	1100	1
3	268203	1120	0
3	273469	1140	0
3	278881	1160	1
3	284173	1180	1
3	289494	1200	0
3	294912	1220	1
3	300365	1240	0
3	305714	1260	0
3	311045	1280	1
3	316390	1300	0
3	321735	1320	0
3	327022	1340	0
3	332254	1360	1
3	337599	1380	0
3	342919	1400	0
3	348303	1420	1
3	353608	1440	0
3	358857	1460	1
3	364170	1480	0
3	369432	1500	1
3	374901	1520	1
3	380183	1540	0
3	385471	1560	0
3	390833	1580	0
3	396056	1600	0
3	401216	1620	1
3	406508	1640	0
3	411815	1660	0
3	417118	1680	1
3	422443	1700	2
3	427697	1720	0
3	432900	1740	0
3	438134	1760	2
3	443525	1780	1
3	448882	1800	1
3	453803	1820	0
3	458099	1840	2
3	461845	1860	0
3	465125	1880	0
3	468039	1900	0
3	470505	1920	0
3	472553	1940	0
3	474113	1960	0
3	475183	1980	0
3	475735	2000	0
4	34386	240	30
4	39591	260	15
4	44932	280	17
4	50267	300	28
4	55618	320	20
4	60949	340	29
4	66181	360	17
4	71524	380	24
4	76773	400	31
4	82026	420	17
4	87377	440	25
4	92697	460	30
4	97914	480	27
4	103282	500	33
4	108684	520	17
4	113995	540	25
4	119245	560	26
4	124584	580	31
4	129909	600	24
4	135171	620	31
4	140469	640	26
4	145812	660	26
4	151171	680	24
4	156443	700	17
4	161748	720	26
4	167026	740	26
4	172383	760	25
4	177669	780	25
4	183006	800	13
4	188371	820	24
4	193716	840	28
4	198970	860	36
4	204374	880	11
4	209686	900	22
4	214939	920	25
4	220278	940	9
4	225622	960	23
4	230998	980	27
4	236303	1000	32
4	241642	1020	20
4	246975	1040	20
4	252225	1060	25
4	257599	1080	25
4	262968	1100	20
4	268203	1120	27
4	273469	1140	25
4	278881	1160	24
4	284173	1180	32
4	289494	1200	23
4	294912	1220	16
4	300365	1240	27
4	305714	1260	21
4	311045	1280	23
4	316390	1300	22
4	321735	1320	13
4	327022	1340	20
4	332254	1360	9
4	337599	1380	21
4	342919	1400	38
4	348303	1420	25
4	353608	1440	25
4	358857	1460	26
4	364170	1480	34
4	369432	1500	18
4	374901	1520	19
4	380183	1540	19
4	385471	1560	18
4	390833	1580	26
4	396056	1600	32
4	401216	1620	22
4	406508	1640	29
4	411815	1660	22
4	417118	1680	29
4	422443	1700	23
4	427697	1720	32
4	432900	1740	26
4	438134	1760	25
4	443525	1780	25
4	448882	1800	18
4	453803	1820	21
4	458099	1840	15
4	461845	1860	20
4	465125	1880	16
4	468039	1900	21
4	470505	1920	9
4	472553	1940	15
4	474113	1960	5
4	475183	1980	11
4	475735	2000	4
5	34386	240	3.5
5	39591	260	3.1666666666667
5	44932	280	3.6
5	50267	300	3
5	55618	320	3
5	60949	340	4
5	66181	360	2.8333333333333
5	71524	380	2.75
5	76773	400	3
5	82026	420	3.4
5	87377	440	2
5	92697	460	1.75
5	97914	480	5
5	103282	500	2.5
5	108684	520	2.6666666666667
5	113995	540	2.75
5	119245	560	1.3333333333333
5	124584	580	3
5	129909	600	3
5	135171	620	2
5	140469	640	5.5
5	145812	660	3.3333333333333
5	151171	680	3
5	156443	700	2.8333333333333
5	161748	720	2.25
5	167026	740	3.6666666666667
5	172383	760	3
5	177669	780	2.25
5	183006	800	1.7
5	188371	820	3
5	193716	840	2
5	198970	860	1
5	204374	880	2.5714285714286
5	209686	900	2.6
5	214939	920	1.3333333333333
5	220278	940	2
5	225622	960	2.4
5	230998	980	2.6666666666667
5	236303	1000	2
5	241642	1020	3
5	246975	1040	2
5	252225	1060	2.25
5	257599	1080	2
5	262968	1100	2.8
5	268203	1120	3.3333333333333
5	273469	1140	2
5	278881	1160	2
5	284173	1180	2
5	289494	1200	2.6
5	294912	1220	2
5	300365	1240	2.5
5	305714	1260	2.6
5	311045	1280	2
5	316390	1300	2.6
5	321735	1320	1.8
5	327022	1340	2.3333333333333
5	332254	1360	2.625
5	337599	1380	3.5
5	342919	1400	2
5	348303	1420	3.6666666666667
5	353608	1440	4.3333333333333
5	358857	1460	2.5
5	364170	1480	2.5
5	369432	1500	3.4
5	374901	1520	3.2
5	380183	1540	2.6666666666667
5	385471	1560	2.6666666666667
5	390833	1580	2.5
5	396056	1600	2
5	401216	1620	3.25
5	406508	1640	4.5
5	411815	1660	3.5
5	417118	1680	2.6666666666667
5	422443	1700	2.2
5	427697	1720	3.5
5	432900	1740	1.5
5	438134	1760	1.6
5	443525	1780	2.2
5	448882	1800	2.5
5	453803	1820	2.2
5	458099	1840	2.2
5	461845	1860	1.5
5	465125	1880	3
5	468039	1900	2
5	470505	1920	3
5	472553	1940	2
5	474113	1960	3.5
5	475183	1980	nan
5	475735	2000	3
6	34386	240	3.5355339059327
6	39591	260	3.0605010483035
6	44932	280	2.0736441353328
6	50267	300	3.4641016151378
6	55618	320	1.4142135623731
6	60949	340	0
6	66181	360	1.16904519445
6	71524	380	1.5
6	76773	400	0
6	82026	420	1.5165750888103
6	87377	440	1
6	92697	460	0.95742710775634
6	97914	480	4.2426406871193
6	103282	500	0.70710678118655
6	108684	520	2.7325202042559
6	113995	540	2.872281323269
6	119245	560	0.81649658092773
6	124584	580	1.4142135623731
6	129909	600	4
6	135171	620	1
6	140469	640	2.1213203435596
6	145812	660	0.57735026918963
6	151171	680	1.4142135623731
6	156443	700	2.2286019533929
6	161748	720	0.95742710775634
6	167026	740	2.8867513459481
6	172383	760	2.1602468994693
6	177669	780	1.8929694486001
6	183006	800	0.82327260234856
6	188371	820	2.1602468994693
6	193716	840	0.81649658092773
6	198970	860	0
6	204374	880	1.3972762620115
6	209686	900	1.8165902124585
6	214939	920	0.51639777949432
6	220278	940	1
6	225622	960	0.54772255750517
6	230998	980	1.5275252316519
6	236303	1000	1
6	241642	1020	1.2247448713916
6	246975	1040	0.81649658092773
6	252225	1060	1.8929694486001
6	257599	1080	1.7320508075689
6	262968	1100	1.7888543819998
6	268203	1120	0.57735026918963
6	273469	1140	1.4142135623731
6	278881	1160	0.70710678118655
6	284173	1180	1.4142135623731
6	289494	1200	1.8165902124585
6	294912	1220	0.75592894601845
6	300365	1240	0.57735026918963
6	305714	1260	2.5099800796022
6	311045	1280	1.7320508075689
6	316390	1300	1.5165750888103
6	321735	1320	0.63245553203368
6	327022	1340	1.8618986725025
6	332254	1360	1.8468119248354
6	337599	1380	3
6	342919	1400	nan
6	348303	1420	3.0550504633039
6	353608	1440	4.0414518843274
6	358857	1460	1
6	364170	1480	0.70710678118655
6	369432	1500	2.0736441353328
6	374901	1520	1.7888543819998
6	380183	1540	1.3662601021279
6	385471	1560	1.7511900715418
6	390833	1580	1.7320508075689
6	396056	1600	0
6	401216	1620	3.2015621187164
6	406508	1640	4.9497474683058
6	411815	1660	1
6	417118	1680	0.57735026918963
6	422443	1700	0.83666002653408
6	427697	1720	0.70710678118655
6	432900	1740	0.83666002653408
6	438134	1760	0.89442719099992
6	443525	1780	1.6431676725155
6	448882	1800	2.7386127875258
6	453803	1820	1.0954451150103
6	458099	1840	0.83666002653408
6	461845	1860	0.57735026918963
6	465125	1880	1
6	468039	1900	nan
6	470505	1920	1
6	472553	1940	nan
6	474113	1960	2.1213203435596
6	475183	1980	nan
6	475735	2000	nan
7	34386	240	12.5
7	39591	260	9.3666666666667
7	44932	280	4.3
7	50267	300	12
7	55618	320	2
7	60949	340	0
7	66181	360	1.3666666666667
7	71524	380	2.25
7	76773	400	0
7	82026	420	2.3
7	87377	440	1
7	92697	460	0.91666666666667
7	97914	480	18
7	103282	500	0.5
7	108684	520	7.4666666666667
7	113995	540	8.25
7	119245	560	0.66666666666667
7	124584	580	2
7	129909	600	16
7	135171	620	1
7	140469	640	4.5
7	145812	660	0.33333333333333
7	151171	680	2
7	156443	700	4.9666666666667
7	161748	720	0.91666666666667
7	167026	740	8.3333333333333
7	172383	760	4.6666666666667
7	177669	780	3.5833333333333
7	183006	800	0.67777777777778
7	188371	820	4.6666666666667
7	193716	840	0.66666666666667
7	198970	860	0
7	204374	880	1.952380952381
7	209686	900	3.3
7	214939	920	0.26666666666667
7	220278	940	1
7	225622	960	0.3
7	230998	980	2.3333333333333
7	236303	1000	1
7	241642	1020	1.5
7	246975	1040	0.66666666666667
7	252225	1060	3.5833333333333
7	257599	1080	3
7	262968	1100	3.2
7	268203	1120	0.33333333333333
7	273469	1140	2
7	278881	1160	0.5
7	284173	1180	2
7	289494	1200	3.3
7	294912	1220	0.57142857142857
7	300365	1240	0.33333333333333
7	305714	1260	6.3
7	311045	1280	3
7	316390	1300	2.3
7	321735	1320	0.4
7	327022	1340	3.4666666666667
7	332254	1360	3.4107142857143
7	337599	1380	9
7	342919	1400	nan
7	348303	1420	9.3333333333333
7	353608	1440	16.333333333333
7	358857	1460	1
7	364170	1480	0.5
7	369432	1500	4.3
7	374901	1520	3.2
7	380183	1540	1.8666666666667
7	385471	1560	3.0666666666667
7	390833	1580	3
7	396056	1600	0
7	401216	1620	10.25
7	406508	1640	24.5
7	411815	1660	1
7	417118	1680	0.33333333333333
7	422443	1700	0.7
7	427697	1720	0.5
7	432900	1740	0.7
7	438134	1760	0.8
7	443525	1780	2.7
7	448882	1800	7.5
7	453803	1820	1.2
7	458099	1840	0.7
7	461845	1860	0.33333333333333
7	465125	1880	1
7	468039	1900	nan
7	470505	1920	1
7	472553	1940	nan
7	474113	1960	4.5
7	475183	1980	nan
7	475735	2000	nan
8	34386	240	9
8	39591	260	8.975
8	44932	280	8.975
8	50267	300	8.925
8	55618	320	8.9
8	60949	340	9.4102564102564
8	66181	360	9.1
8	71524	380	8.825
8	76773	400	8.8
8	82026	420	9.1282051282051
8	87377	440	9.125
8	92697	460	8.7560975609756
8	97914	480	9.0512820512821
8	103282	500	9.075
8	108684	520	9.025
8	113995	540	9.025
8	119245	560	9
8	124584	580	9
8	129909	600	8.825
8	135171	620	9.025
8	140469	640	9.2564102564103
8	145812	660	9.025641025641
8	151171	680	8.95
8	156443	700	9
8	161748	720	9.1025641025641
8	167026	740	9.25
8	172383	760	8.780487804878
8	177669	780	9
8	183006	800	9.1
8	188371	820	9.1707317073171
8	193716	840	8.95
8	198970	860	8.8
8	204374	880	9.3333333333333
8	209686	900	8.875
8	214939	920	9.025641025641
8	220278	940	9.025
8	225622	960	8.9024390243902
8	230998	980	9.3333333333333
8	236303	1000	9.0243902439024
8	241642	1020	9.125
8	246975	1040	9.1707317073171
8	252225	1060	8.775
8	257599	1080	9.225
8	262968	1100	9.025
8	268203	1120	8.825
8	273469	1140	9.1
8	278881	1160	8.95
8	284173	1180	8.8717948717949
8	289494	1200	8.9268292682927
8	294912	1220	8.95
8	300365	1240	9.1219512195122
8	305714	1260	9.1794871794872
8	311045	1280	9.3076923076923
8	316390	1300	9.225
8	321735	1320	8.9024390243902
8	327022	1340	9.025
8	332254	1360	9.1538461538462
8	337599	1380	9.2307692307692
8	342919	1400	9
8	348303	1420	9.1
8	353608	1440	8.780487804878
8	358857	1460	8.8780487804878
8	364170	1480	8.8048780487805
8	369432	1500	8.7073170731707
8	374901	1520	9.1
8	380183	1540	8.8780487804878
8	385471	1560	9.05
8	390833	1580	8.875
8	396056	1600	9.2368421052632
8	401216	1620	9.05
8	406508	1640	8.85
8	411815	1660	8.975
8	417118	1680	8.6829268292683
8	422443	1700	8.8292682926829
8	427697	1720	8.8292682926829
8	432900	1740	8.9268292682927
8	438134	1760	8.725
8	443525	1780	8.9761904761905
8	448882	1800	9.125
8	453803	1820	8.8378378378378
8	458099	1840	8.4848484848485
8	461845	1860	8.2333333333333
8	465125	1880	8.0714285714286
8	468039	1900	8.0416666666667
8	470505	1920	8
8	472553	1940	7.7777777777778
8	474113	1960	7.4285714285714
8	475183	1980	6.1818181818182
8	475735	2000	5.25
9	34386	240	1.8209309360007
9	39591	260	1.4760915126936
9	44932	280	1.9146868258349
9	50267	300	1.8589699381026
9	55618	320	1.6140409552202
9	60949	340	1.4994375913716
9	66181	360	1.2567765033956
9	71524	380	1.8795457716407
9	76773	400	1.6361305195256
9	82026	420	1.6412364911776
9	87377	440	1.7274184087749
9	92697	460	1.9593428465289
9	97914	480	1.6213820931655
9	103282	500	1.6546360665779
9	108684	520	1.3679012559954
9	113995	540	1.4048907248316
9	119245	560	1.3397282541142
9	124584	580	1.5525000516124
9	129909	600	1.5172089760224
9	135171	620	1.7318657495196
9	140469	640	1.3517619830574
9	145812	660	1.4046385466353
9	151171	680	1.8667124536509
9	156443	700	1.8257418583506
9	161748	720	1.4103913565665
9	167026	740	1.6602440351979
9	172383	760	1.8776607137866
9	177669	780	1.6383560438183
9	183006	800	1.7511900715418
9	188371	820	1.6109382207954
9	193716	840	2.0248456731317
9	198970	860	2.1146618811987
9	204374	880	1.8964417280977
9	209686	900	2.0151668506348
9	214939	920	1.5472756956253
9	220278	940	1.8325756009871
9	225622	960	1.4457675824416
9	230998	980	1.6276126096272
9	236303	1000	1.9168699079234
9	241642	1020	1.2646576510499
9	246975	1040	1.5313791010783
9	252225	1060	1.7612277186449
9	257599	1080	1.64062996031
9	262968	1100	1.9146868258349
9	268203	1120	1.7814931795317
9	273469	1140	1.7216569240422
9	278881	1160	1.6004806970215
9	284173	1180	1.6251232694862
9	289494	1200	1.7662140853028
9	294912	1220	1.7823925148303
9	300365	1240	1.6910813397235
9	305714	1260	1.5538033959457
9	311045	1280	1.5919839683444
9	316390	1300	1.6715952767434
9	321735	1320	1.6248827349809
9	327022	1340	1.4586171884919
9	332254	1360	1.4606858796012
9	337599	1380	1.4411533842458
9	342919	1400	1.3601470508735
9	348303	1420	1.549193338483
9	353608	1440	1.9686568406143
9	358857	1460	1.5683609589508
9	364170	1480	1.8468826735221
9	369432	1500	1.9136862652878
9	374901	1520	1.7216569240422
9	380183	1540	1.5361497640403
9	385471	1560	1.1535897150934
9	390833	1580	1.8971976634919
9	396056	1600	1.5322516645723
9	401216	1620	1.893985081034
9	406508	1640	1.8334498797454
9	411815	1660	1.5104337974272
9	417118	1680	1.7669044171975
9	422443	1700	1.8289674549372
9	427697	1720	1.8561039710155
9	432900	1740	1.5393219920218
9	438134	1760	1.8672274798584
9	443525	1780	2.0180659086399
9	448882	1800	1.7568547070087
9	453803	1820	1.4436357172376
9	458099	1840	1.7521631652263
9	461845	1860	1.6120950886076
9	465125	1880	1.8444826922789
9	468039	1900	1.8991798382383
9	470505	1920	1.5165750888103
9	472553	1940	1.8328876463611
9	474113	1960	1.5045717874984
9	475183	1980	0.75075719352955
9	475735	2000	1.3887301496588
10	34386	240	3.3157894736842
10	39591	260	2.1788461538462
10	44932	280	3.6660256410256
10	50267	300	3.4557692307692
10	55618	320	2.6051282051282
10	60949	340	2.2483130904184
10	66181	360	1.5794871794872
10	71524	380	3.5326923076923
10	76773	400	2.6769230769231
10	82026	420	2.693657219973
10	87377	440	2.9839743589744
10	92697	460	3.8390243902439
10	97914	480	2.6288798920378
10	103282	500	2.7378205128205
10	108684	520	1.8711538461538
10	113995	540	1.9737179487179
10	119245	560	1.7948717948718
10	124584	580	2.4102564102564
10	129909	600	2.3019230769231
10	135171	620	2.999358974359
10	140469	640	1.8272604588394
10	145812	660	1.9730094466937
10	151171	680	3.4846153846154
10	156443	700	3.3333333333333
10	161748	720	1.9892037786775
10	167026	740	2.7564102564103
10	172383	760	3.5256097560976
10	177669	780	2.6842105263158
10	183006	800	3.0666666666667
10	188371	820	2.5951219512195
10	193716	840	4.1
10	198970	860	4.4717948717949
10	204374	880	3.5964912280702
10	209686	900	4.0608974358974
10	214939	920	2.3940620782726
10	220278	940	3.3583333333333
10	225622	960	2.090243902439
10	230998	980	2.6491228070175
10	236303	1000	3.6743902439024
10	241642	1020	1.599358974359
10	246975	1040	2.3451219512195
10	252225	1060	3.1019230769231
10	257599	1080	2.6916666666667
10	262968	1100	3.6660256410256
10	268203	1120	3.1737179487179
10	273469	1140	2.9641025641026
10	278881	1160	2.5615384615385
10	284173	1180	2.6410256410256
10	289494	1200	3.119512195122
10	294912	1220	3.1769230769231
10	300365	1240	2.859756097561
10	305714	1260	2.4143049932524
10	311045	1280	2.5344129554656
10	316390	1300	2.7942307692308
10	321735	1320	2.640243902439
10	327022	1340	2.1275641025641
10	332254	1360	2.1336032388664
10	337599	1380	2.0769230769231
10	342919	1400	1.85
10	348303	1420	2.4
10	353608	1440	3.8756097560976
10	358857	1460	2.459756097561
10	364170	1480	3.4109756097561
10	369432	1500	3.6621951219512
10	374901	1520	2.9641025641026
10	380183	1540	2.359756097561
10	385471	1560	1.3307692307692
10	390833	1580	3.599358974359
10	396056	1600	2.3477951635846
10	401216	1620	3.5871794871795
10	406508	1640	3.3615384615385
10	411815	1660	2.2814102564103
10	417118	1680	3.1219512195122
10	422443	1700	3.3451219512195
10	427697	1720	3.4451219512195
10	432900	1740	2.369512195122
10	438134	1760	3.4865384615385
10	443525	1780	4.0725900116144
10	448882	1800	3.0865384615385
10	453803	1820	2.0840840840841
10	458099	1840	3.0700757575758
10	461845	1860	2.5988505747126
10	465125	1880	3.4021164021164
10	468039	1900	3.606884057971
10	470505	1920	2.3
10	472553	1940	3.359477124183
10	474113	1960	2.2637362637363
10	475183	1980	0.56363636363636
10	475735	2000	1.9285714285714
11	34386	240	92.935984140776
11	39591	260	274.00361986819
11	44932	280	232.82314951869
11	50267	300	137.42868779624
11	55618	320	230.68929485397
11	60949	340	95.204722417553
11	66181	360	281.18945842375
11	71524	380	181.13019733137
11	76773	400	92.949192858498
11	82026	420	229.27317059373
11	87377	440	231.70205152373
11	92697	460	181.57252521494
11	97914	480	91.640913962817
11	103282	500	90.988535040712
11	108684	520	282.18109583458
11	113995	540	189.17277476741
11	119245	560	279.93459653193
11	124584	580	91.140901331586
11	129909	600	180.62881888715
11	135171	620	142.05547079251
11	140469	640	88.950221977047
11	145812	660	137.21399882481
11	151171	680	185.16125247861
11	156443	700	270.55930922964
11	161748	720	185.16209534741
11	167026	740	141.88034566583
11	172383	760	186.6085543413
11	177669	780	183.86097522454
11	183006	800	467.43991004154
11	188371	820	186.57245660417
11	193716	840	187.76693775631
11	198970	860	99.557971444147
11	204374	880	326.06716815354
11	209686	900	232.04169029622
11	214939	920	284.23244101566
11	220278	940	420.03838382877
11	225622	960	230.47820567438
11	230998	980	137.90772068891
11	236303	1000	146.5289816684
11	241642	1020	230.14000956939
11	246975	1040	328.87526721174
11	252225	1060	186.00324371136
11	257599	1080	232.61639767594
11	262968	1100	233.64171307915
11	268203	1120	138.6902930326
11	273469	1140	231.17772430525
11	278881	1160	233.42459259225
11	284173	1180	93.381175884094
11	289494	1200	228.00250597434
11	294912	1220	375.55433216785
11	300365	1240	181.35944545707
11	305714	1260	226.82655502725
11	311045	1280	238.13354056062
11	316390	1300	231.00275197327
11	321735	1320	460.26428366388
11	327022	1340	281.54744164004
11	332254	1360	364.73548760979
11	337599	1380	183.33797297908
11	342919	1400	47.305788696345
11	348303	1420	135.33975639774
11	353608	1440	140.75323807704
11	358857	1460	186.10025746118
11	364170	1480	94.758764673107
11	369432	1500	228.25624818915
11	374901	1520	230.16856866471
11	380183	1540	272.43163215351
11	385471	1560	277.17537402134
11	390833	1580	184.50282406345
11	396056	1600	93.379514396301
11	401216	1620	182.46590007039
11	406508	1640	91.565756280477
11	411815	1660	184.11141263967
11	417118	1680	137.2980556161
11	422443	1700	236.25078011036
11	427697	1720	92.497180692677
11	432900	1740	275.41707164967
11	438134	1760	227.23322641505
11	443525	1780	235.8954385587
11	448882	1800	275.46983483569
11	453803	1820	233.22087619716
11	458099	1840	227.52563780953
11	461845	1860	186.21960464986
11	465125	1880	137.69337167237
11	468039	1900	46.598531948902
11	470505	1920	136.98327773527
11	472553	1940	47.969859145825
11	474113	1960	94.35325634693
11	475183	1980	0
11	475735	2000	46.194279005559
12	34386	240	46.467992070388
12	39591	260	45.667269978032
12	44932	280	46.564629903737
12	50267	300	45.809562598746
12	55618	320	46.137858970794
12	60949	340	47.602361208777
12	66181	360	46.864909737291
12	71524	380	45.282549332842
12	76773	400	46.474596429249
12	82026	420	45.854634118746
12	87377	440	46.340410304746
12	92697	460	45.393131303735
12	97914	480	45.820456981409
12	103282	500	45.494267520356
12	108684	520	47.030182639097
12	113995	540	47.293193691853
12	119245	560	46.655766088654
12	124584	580	45.570450665793
12	129909	600	45.157204721787
12	135171	620	47.351823597502
12	140469	640	44.475110988524
12	145812	660	45.737999608271
12	151171	680	46.290313119654
12	156443	700	45.09321820494
12	161748	720	46.290523836852
12	167026	740	47.293448555276
12	172383	760	46.652138585326
12	177669	780	45.965243806135
12	183006	800	46.743991004154
12	188371	820	46.643114151043
12	193716	840	46.941734439079
12	198970	860	49.778985722074
12	204374	880	46.581024021934
12	209686	900	46.408338059244
12	214939	920	47.37207350261
12	220278	940	46.67093153653
12	225622	960	46.095641134876
12	230998	980	45.969240229638
12	236303	1000	48.842993889465
12	241642	1020	46.028001913877
12	246975	1040	46.982181030249
12	252225	1060	46.500810927839
12	257599	1080	46.523279535188
12	262968	1100	46.728342615829
12	268203	1120	46.230097677532
12	273469	1140	46.23554486105
12	278881	1160	46.68491851845
12	284173	1180	46.690587942047
12	289494	1200	45.600501194868
12	294912	1220	46.944291520982
12	300365	1240	45.339861364268
12	305714	1260	45.365311005449
12	311045	1280	47.626708112124
12	316390	1300	46.200550394654
12	321735	1320	46.026428366388
12	327022	1340	46.924573606674
12	332254	1360	45.591935951224
12	337599	1380	45.83449324477
12	342919	1400	47.305788696345
12	348303	1420	45.11325213258
12	353608	1440	46.917746025681
12	358857	1460	46.525064365295
12	364170	1480	47.379382336553
12	369432	1500	45.651249637831
12	374901	1520	46.033713732943
12	380183	1540	45.405272025585
12	385471	1560	46.195895670224
12	390833	1580	46.125706015863
12	396056	1600	46.689757198151
12	401216	1620	45.616475017598
12	406508	1640	45.782878140238
12	411815	1660	46.027853159916
12	417118	1680	45.766018538699
12	422443	1700	47.250156022072
12	427697	1720	46.248590346338
12	432900	1740	45.902845274945
12	438134	1760	45.44664528301
12	443525	1780	47.17908771174
12	448882	1800	45.911639139282
12	453803	1820	46.644175239432
12	458099	1840	45.505127561906
12	461845	1860	46.554901162466
12	465125	1880	45.897790557456
12	468039	1900	46.598531948902
12	470505	1920	45.661092578422
12	472553	1940	47.969859145825
12	474113	1960	47.176628173465
12	475183	1980	nan
12	475735	2000	46.194279005559
13	34386	240	1.2910866391575
13	39591	260	1.0734336605651
13	44932	280	1.8542763150301
13	50267	300	0.86870325244306
13	55618	320	0.64536433040953
13	60949	340	2.2703843998771
13	66181	360	1.9758700759804
13	71524	380	0.61152171513847
13	76773	400	0.61104202053502
13	82026	420	0.7448663956089
13	87377	440	2.5844260556273
13	92697	460	0.17005743991961
13	97914	480	2.0988925651312
13	103282	500	1.2438428772307
13	108684	520	1.9832373745737
13	113995	540	3.8705102484679
13	119245	560	2.3129398124608
13	124584	580	2.3135675484048
13	129909	600	0.98197257255278
13	135171	620	0.99629309214336
13	140469	640	0.57422160642802
13	145812	660	0.62846121013634
13	151171	680	1.0884608487188
13	156443	700	0.62281090067627
13	161748	720	0.42402010478344
13	167026	740	2.1141147628564
13	172383	760	3.0387782536449
13	177669	780	2.0363164504124
13	183006	800	1.6775208677456
13	188371	820	2.3369673689875
13	193716	840	1.9744737182628
13	198970	860	4.9690401555696e-007
13	204374	880	1.995376263603
13	209686	900	2.1123168449012
13	214939	920	2.1850664995165
13	220278	940	1.4750300819191
13	225622	960	1.2846344532864
13	230998	980	1.1589995255948
13	236303	1000	4.3667366574794
13	241642	1020	0.6415987493268
13	246975	1040	1.8981273082675
13	252225	1060	1.5927138576448
13	257599	1080	1.3830747682751
13	262968	1100	1.3429347130138
13	268203	1120	0.54633666740996
13	273469	1140	1.5485031491623
13	278881	1160	1.1799035990799
13	284173	1180	1.2606325506929
13	289494	1200	0.80718619002633
13	294912	1220	1.8114919515162
13	300365	1240	0.34685719093509
13	305714	1260	0.5214810480458
13	311045	1280	3.5709147983914
13	316390	1300	1.4054720467211
13	321735	1320	0.82846489341348
13	327022	1340	1.3428992347166
13	332254	1360	1.6497695783757
13	337599	1380	1.7720553268454
13	342919	1400	nan
13	348303	1420	0.4660872240827
13	353608	1440	2.2135616042797