file 32083 1427466759                                           
version 2
run statisticRVV-197-20150327-15:21:50-16300
attr c 8
attr configname statisticRVV
attr datetime 20150327-15:21:50
attr experiment statisticRVV
attr inifile omnetpp.ini
attr iterationvars "$sc=\"erlangen-medium.launchd.xml\", $p=1/8, $c=8"
attr iterationvars2 "$sc=\"erlangen-medium.launchd.xml\", $p=1/8, $c=8, $repetition=7"
attr measurement "$sc=\"erlangen-medium.launchd.xml\", $p=1/8, $c=8"
attr network RSUExampleScenario
attr p 1/8
attr processid 16300
attr repetition 7
attr replication #7
attr resultdir results
attr runnumber 197
attr sc "\"erlangen-medium.launchd.xml\""
attr seedset 197

vector 0  RSUExampleScenario.rsu[0].appl  Number_CH  ETV
vector 1  RSUExampleScenario.rsu[0].appl  Number_ON  ETV
vector 2  RSUExampleScenario.rsu[0].appl  Number_FN  ETV
vector 3  RSUExampleScenario.rsu[0].appl  Number_CH_Losts  ETV
vector 4  RSUExampleScenario.rsu[0].appl  Number_CH_Losts  ETV
vector 5  RSUExampleScenario.rsu[0].appl  Mean_Cluster_Size  ETV
vector 6  RSUExampleScenario.rsu[0].appl  StdDev_Cluster_Size  ETV
vector 7  RSUExampleScenario.rsu[0].appl  Variance_Cluster_Size  ETV
vector 8  RSUExampleScenario.rsu[0].appl  Mean_Neighbors  ETV
vector 9  RSUExampleScenario.rsu[0].appl  StdDev_Neighbors  ETV
vector 10  RSUExampleScenario.rsu[0].appl  Variance_Neighbors  ETV
vector 11  RSUExampleScenario.rsu[0].appl  Total_CH_Utility  ETV
vector 12  RSUExampleScenario.rsu[0].appl  Mean_CH_Utility  ETV
vector 13  RSUExampleScenario.rsu[0].appl  StdDev_CH_Utility  ETV
vector 14  RSUExampleScenario.rsu[0].appl  Variance_CH_Utility  ETV
vector 15  RSUExampleScenario.rsu[0].appl  Total_exp_CH_Utility  ETV
vector 16  RSUExampleScenario.rsu[0].appl  Mean_exp_CH_Utility  ETV
vector 17  RSUExampleScenario.rsu[0].appl  StdDev_exp_CH_Utility  ETV
vector 18  RSUExampleScenario.rsu[0].appl  Variance_exp_CH_Utility  ETV
vector 19  RSUExampleScenario.rsu[0].appl  Total_ON_Utility  ETV
vector 20  RSUExampleScenario.rsu[0].appl  Mean_ON_Utility  ETV
vector 21  RSUExampleScenario.rsu[0].appl  StdDev_ON_Utility  ETV
vector 22  RSUExampleScenario.rsu[0].appl  Variance_ON_Utility  ETV
vector 23  RSUExampleScenario.rsu[0].appl  Total_exp_ON_Utility  ETV
vector 24  RSUExampleScenario.rsu[0].appl  Mean_exp_ON_Utility  ETV
vector 25  RSUExampleScenario.rsu[0].appl  StdDev_exp_ON_Utility  ETV
vector 26  RSUExampleScenario.rsu[0].appl  Variance_exp_ON_Utility  ETV
0	2432 670 145833 1564937 240 1000 39 6 22 501 6937
1	3102 677 145833 1564937 240 1000 39 34 100 2727 198887
2	3779 672 145833 1564937 240 1000 39 5 54 1000 31894
3	4451 637 145833 1564937 240 1000 39 0 2 21 27
4	5088 671 145833 1564937 240 1000 39 3 54 972 30652
5	5759 1016 145833 1564937 240 1000 39 3.9285714285714 7.625 219.19455256216 1263.7040967081
6	6775 1166 145833 1564937 240 1000 39 0.51754916950677 2.812204959107 76.931966154619 159.52923346433
7	7941 1075 145833 1564937 240 1000 39 0.26785714285714 7.9084967320261 159.52923346433 749.84873676142
8	9016 1140 145833 1564937 240 1000 39 21.978723404255 31.625954198473 982.92400416612 25181.657108909
9	10156 1180 145833 1564937 240 1000 39 3.0299048582645 10.594146335713 223.65412893336 1471.0293895553
10	11336 1207 145833 1564937 240 1000 39 9.1803234501348 112.2359365825 1471.0293895553 89896.19421641
11	12543 1217 145833 1564937 240 1000 39 274.89053411402 1073.4361679609 23857.063483197 15812635.09878
12	13760 1216 145833 1564937 240 1000 39 45.815089019004 49.818979752082 1851.6260780484 87939.319143678
13	14976 1223 145833 1564937 240 1000 39 0.47596570544585 3.9224827664989 74.76992512487 166.27520725268
14	16199 1221 145833 1564937 240 1000 39 0.22654335276056 15.385871053481 166.27520725268 1140.0741806478
15	17420 1218 145833 1564937 240 1000 39 266.49922275514 1010.4528784787 23653.721264651 15538671.841617
16	18638 1219 145833 1564937 240 1000 39 44.416537125856 46.520481661988 1771.2990172971 80456.243937083
17	19857 1230 145833 1564937 240 1000 39 0.095047159699269 2.0778131435297 44.630311834823 59.500362478197
18	21087 1234 145833 1564937 240 1000 39 0.0090339625668983 4.3173074594249 59.500362478197 129.37404210034
19	22321 1215 145833 1564937 240 1000 39 1565.3076809696 4776.6071662052 129236.78486716 447991125.76607
20	23536 1214 145833 1564937 240 1000 39 45.922822619191 48.631632818148 1845.0153155633 87298.103846637
21	24750 1221 145833 1564937 240 1000 39 1.4082189587992 3.6381061844458 100.69688269996 268.67336178621
22	25971 1220 145833 1564937 240 1000 39 1.9830806359215 13.235816609303 268.67336178621 2092.216800149
23	27191 1221 145833 1564937 240 1000 39 3222.3783056406 5393.4691024169 167903.07609031 735020297.13047
24	28412 1217 145833 1564937 240 1000 39 44.755254245008 45.718894350217 1769.1360985406 80254.978768767
25	29629 1227 145833 1564937 240 1000 39 0.3584952970808 1.3963428861842 43.081559446875 50.157248433048
26	30856 1227 145833 1564937 240 1000 39 0.12851887802905 1.9497734557971 50.157248433048 73.21303430149
