file 72309 1427437763                                           
version 2
run statisticRVV-133-20150327-06:25:12-12412
attr c 15
attr configname statisticRVV
attr datetime 20150327-06:25:12
attr experiment statisticRVV
attr inifile omnetpp.ini
attr iterationvars "$sc=\"erlangen-medium.launchd.xml\", $p=1/15, $c=15"
attr iterationvars2 "$sc=\"erlangen-medium.launchd.xml\", $p=1/15, $c=15, $repetition=3"
attr measurement "$sc=\"erlangen-medium.launchd.xml\", $p=1/15, $c=15"
attr network RSUExampleScenario
attr p 1/15
attr processid 12412
attr repetition 3
attr replication #3
attr resultdir results
attr runnumber 133
attr sc "\"erlangen-medium.launchd.xml\""
attr seedset 133

vector 0  RSUExampleScenario.rsu[0].appl  Number_CH  ETV
vector 1  RSUExampleScenario.rsu[0].appl  Number_ON  ETV
vector 2  RSUExampleScenario.rsu[0].appl  Number_FN  ETV
vector 3  RSUExampleScenario.rsu[0].appl  Number_CH_Losts  ETV
vector 4  RSUExampleScenario.rsu[0].appl  Number_CH_Losts  ETV
vector 5  RSUExampleScenario.rsu[0].appl  Mean_Cluster_Size  ETV
vector 6  RSUExampleScenario.rsu[0].appl  StdDev_Cluster_Size  ETV
vector 7  RSUExampleScenario.rsu[0].appl  Variance_Cluster_Size  ETV
vector 8  RSUExampleScenario.rsu[0].appl  Mean_Neighbors  ETV
vector 9  RSUExampleScenario.rsu[0].appl  StdDev_Neighbors  ETV
vector 10  RSUExampleScenario.rsu[0].appl  Variance_Neighbors  ETV
vector 11  RSUExampleScenario.rsu[0].appl  Total_CH_Utility  ETV
vector 12  RSUExampleScenario.rsu[0].appl  Mean_CH_Utility  ETV
vector 13  RSUExampleScenario.rsu[0].appl  StdDev_CH_Utility  ETV
vector 14  RSUExampleScenario.rsu[0].appl  Variance_CH_Utility  ETV
vector 15  RSUExampleScenario.rsu[0].appl  Total_exp_CH_Utility  ETV
vector 16  RSUExampleScenario.rsu[0].appl  Mean_exp_CH_Utility  ETV
vector 17  RSUExampleScenario.rsu[0].appl  StdDev_exp_CH_Utility  ETV
vector 18  RSUExampleScenario.rsu[0].appl  Variance_exp_CH_Utility  ETV
vector 19  RSUExampleScenario.rsu[0].appl  Total_ON_Utility  ETV
vector 20  RSUExampleScenario.rsu[0].appl  Mean_ON_Utility  ETV
vector 21  RSUExampleScenario.rsu[0].appl  StdDev_ON_Utility  ETV
vector 22  RSUExampleScenario.rsu[0].appl  Variance_ON_Utility  ETV
vector 23  RSUExampleScenario.rsu[0].appl  Total_exp_ON_Utility  ETV
vector 24  RSUExampleScenario.rsu[0].appl  Mean_exp_ON_Utility  ETV
vector 25  RSUExampleScenario.rsu[0].appl  StdDev_exp_ON_Utility  ETV
vector 26  RSUExampleScenario.rsu[0].appl  Variance_exp_ON_Utility  ETV
0	2440 1574 144859 7060220 240 2000 89 2 18 801 8153
1	4014 1661 144859 7060220 240 2000 89 29 158 8320 853550
2	5675 1616 144859 7060220 240 2000 89 2 92 3383 174891
3	7291 1537 144859 7060220 240 2000 89 0 2 15 19
4	8828 1616 144859 7060220 240 2000 89 2 92 3356 172594
5	10444 2295 144859 7060220 240 2000 89 5.7857142857143 15 960.31769480519 10740.228733031
6	12739 2737 144859 7060220 240 2000 89 0 6.0221812216726 325.48049171127 1340.8339246538
7	15476 2468 144859 7060220 240 2000 89 0 36.266666666667 1340.8339246538 26555.00360259
8	17944 2723 144859 7060220 240 2000 89 21.969072164948 61.938461538462 3373.7896840526 142877.32908703
9	20667 2771 144859 7060220 240 2000 89 2.9569690171177 31.49908045937 1388.1019159337 30086.044963519
10	23438 2862 144859 7060220 240 2000 89 8.7436657681941 992.19206978588 30086.044963519 19723683.553114
11	26300 2864 144859 7060220 240 2000 89 91.327632108868 861.72420687476 37946.364600801 18392789.708081
12	29164 2866 144859 7060220 240 2000 89 45.49545332501 48.998619992375 4202.3639470804 198485.99424921
13	32030 2872 144859 7060220 240 2000 89 0.18899285942441 3.0144333246881 152.91815835272 294.54036415442
14	34902 2874 144859 7060220 240 2000 89 0.035718300913414 9.0868082689902 294.54036415442 1338.1726171601
15	37776 2865 144859 7060220 240 2000 89 89.342509683712 819.84371673808 36949.671631978 17353984.990952
16	40641 2867 144859 7060220 240 2000 89 44.486176871788 46.410876024119 4047.5655804227 184093.04670858
17	43508 2906 144859 7060220 240 2000 89 0.10988375710856 1.8462172763873 82.956848249284 87.621224848071
18	46414 2917 144859 7060220 240 2000 89 0.012074440076292 3.4085182316309 87.621224848071 123.55851795397
19	49331 2865 144859 7060220 240 2000 89 1324.3843037111 7461.6577081125 392655.51807206 1911153402.0232
20	52196 2858 144859 7060220 240 2000 89 45.26457340476 48.33956252145 4186.3874891392 196970.55758301
21	55054 2864 144859 7060220 240 2000 89 1.7370199885183 3.5098255573343 226.20089342165 586.22736229465
22	57918 2863 144859 7060220 240 2000 89 3.0172384405122 12.318875442917 586.22736229465 4155.7360638039
23	60781 2861 144859 7060220 240 2000 89 3314.3911698148 8333.1178019413 531962.56013687 3354997689.3823
24	63642 2863 144859 7060220 240 2000 89 44.789069862362 45.756984404659 4052.109205844 184493.63790682
25	66505 2905 144859 7060220 240 2000 89 0.37869321745219 1.4945802041077 91.648764973514 98.548359757709
26	69410 2899 144859 7060220 240 2000 89 0.14340855294429 2.2337699865106 98.548359757709 125.56899335828
