version 2
run statisticRVV-167-20150325-19:30:21-23420
attr c 10
attr configname statisticRVV
attr datetime 20150325-19:30:21
attr experiment statisticRVV
attr inifile omnetpp.ini
attr iterationvars "$sc=\"erlangen-medium.launchd.xml\", $p=1/10, $c=10"
attr iterationvars2 "$sc=\"erlangen-medium.launchd.xml\", $p=1/10, $c=10, $repetition=7"
attr measurement "$sc=\"erlangen-medium.launchd.xml\", $p=1/10, $c=10"
attr network RSUExampleScenario
attr p 1/10
attr processid 23420
attr repetition 7
attr replication #7
attr resultdir results
attr runnumber 167
attr sc "\"erlangen-medium.launchd.xml\""
attr seedset 167

vector 0  RSUExampleScenario.rsu[0].appl  Number_CH  ETV
vector 1  RSUExampleScenario.rsu[0].appl  Number_ON  ETV
vector 2  RSUExampleScenario.rsu[0].appl  Number_FN  ETV
vector 3  RSUExampleScenario.rsu[0].appl  Number_CH_Losts  ETV
vector 4  RSUExampleScenario.rsu[0].appl  Mean_Cluster_Size  ETV
vector 5  RSUExampleScenario.rsu[0].appl  StdDev_Cluster_Size  ETV
vector 6  RSUExampleScenario.rsu[0].appl  Variance_Cluster_Size  ETV
vector 7  RSUExampleScenario.rsu[0].appl  Mean_Neighbors  ETV
vector 8  RSUExampleScenario.rsu[0].appl  StdDev_Neighbors  ETV
vector 9  RSUExampleScenario.rsu[0].appl  Variance_Neighbors  ETV
vector 10  RSUExampleScenario.rsu[0].appl  Total_CH_Utility  ETV
vector 11  RSUExampleScenario.rsu[0].appl  Mean_CH_Utility  ETV
vector 12  RSUExampleScenario.rsu[0].appl  StdDev_CH_Utility  ETV
vector 13  RSUExampleScenario.rsu[0].appl  Variance_CH_Utility  ETV
vector 14  RSUExampleScenario.rsu[0].appl  Total_exp_CH_Utility  ETV
vector 15  RSUExampleScenario.rsu[0].appl  Mean_exp_CH_Utility  ETV
vector 16  RSUExampleScenario.rsu[0].appl  StdDev_exp_CH_Utility  ETV
vector 17  RSUExampleScenario.rsu[0].appl  Variance_exp_CH_Utility  ETV
vector 18  RSUExampleScenario.rsu[0].appl  Total_ON_Utility  ETV
vector 19  RSUExampleScenario.rsu[0].appl  Mean_ON_Utility  ETV
vector 20  RSUExampleScenario.rsu[0].appl  StdDev_ON_Utility  ETV
vector 21  RSUExampleScenario.rsu[0].appl  Variance_ON_Utility  ETV
vector 22  RSUExampleScenario.rsu[0].appl  Total_exp_ON_Utility  ETV
vector 23  RSUExampleScenario.rsu[0].appl  Mean_exp_ON_Utility  ETV
vector 24  RSUExampleScenario.rsu[0].appl  StdDev_exp_ON_Utility  ETV
vector 25  RSUExampleScenario.rsu[0].appl  Variance_exp_ON_Utility  ETV
0	145025	240	5
0	171034	260	6
0	198243	280	6
0	225382	300	9
0	252933	320	6
0	280266	340	8
0	307432	360	12
0	334844	380	10
0	362587	400	8
0	390378	420	4
0	419002	440	6
0	448211	460	10
0	477817	480	8
0	507953	500	11
0	538976	520	6
0	570994	540	6
0	603414	560	13
0	636567	580	5
0	670459	600	10
0	705164	620	14
0	740644	640	14
0	777019	660	7
0	815087	680	5
0	854008	700	5
0	894145	720	13
0	935965	740	12
0	979245	760	6
0	1022777	780	8
0	1067808	800	12
0	1113916	820	13
0	1160784	840	11
0	1209202	860	6
0	1258587	880	13
0	1309678	900	16
0	1360983	920	8
0	1414239	940	13
0	1468750	960	11
0	1524596	980	11
0	1581575	1000	12
0	1640822	1020	8
0	1700795	1040	6
0	1762547	1060	13
0	1826108	1080	11
0	1891117	1100	4
0	1957129	1120	15
0	2025183	1140	13
0	2094455	1160	17
0	2165891	1180	8
0	2239297	1200	12
0	2315155	1220	12
0	2391970	1240	12
0	2470945	1260	11
0	2551858	1280	12
0	2635411	1300	14
0	2720265	1320	14
0	2807830	1340	10
0	2897394	1360	10
0	2989275	1380	16
0	3082740	1400	11
0	3178522	1420	10
0	3276090	1440	10
0	3376089	1460	19
0	3478256	1480	20
0	3582480	1500	21
0	3690374	1520	18
0	3799724	1540	16
0	3911990	1560	12
0	4025620	1580	11
0	4142417	1600	11
0	4261175	1620	11
0	4382163	1640	17
0	4505859	1660	16
0	4631654	1680	11
0	4759490	1700	16
0	4889885	1720	15
0	5022332	1740	18
0	5157479	1760	12
0	5295181	1780	9
0	5434458	1800	19
0	5577233	1820	13
0	5721893	1840	17
0	5868812	1860	12
0	6018473	1880	10
0	6170609	1900	17
0	6324561	1920	16
0	6481162	1940	12
0	6641085	1960	14
0	6803184	1980	17
0	6967930	2000	12
1	145025	240	7
1	171034	260	7
1	198243	280	10
1	225382	300	11
1	252933	320	10
1	280266	340	10
1	307432	360	14
1	334844	380	13
1	362587	400	11
1	390378	420	5
1	419002	440	7
1	448211	460	12
1	477817	480	14
1	507953	500	17
1	538976	520	8
1	570994	540	8
1	603414	560	16
1	636567	580	8
1	670459	600	13
1	705164	620	16
1	740644	640	21
1	777019	660	9
1	815087	680	6
1	854008	700	9
1	894145	720	20
1	935965	740	14
1	979245	760	10
1	1022777	780	12
1	1067808	800	18
1	1113916	820	21
1	1160784	840	13
1	1209202	860	8
1	1258587	880	17
1	1309678	900	23
1	1360983	920	11
1	1414239	940	19
1	1468750	960	14
1	1524596	980	16
1	1581575	1000	15
1	1640822	1020	14
1	1700795	1040	9
1	1762547	1060	16
1	1826108	1080	14
1	1891117	1100	5
1	1957129	1120	21
1	2025183	1140	16
1	2094455	1160	24
1	2165891	1180	10
1	2239297	1200	19
1	2315155	1220	17
1	2391970	1240	15
1	2470945	1260	16
1	2551858	1280	13
1	2635411	1300	21
1	2720265	1320	24
1	2807830	1340	16
1	2897394	1360	15
1	2989275	1380	20
1	3082740	1400	16
1	3178522	1420	14
1	3276090	1440	15
1	3376089	1460	23
1	3478256	1480	27
1	3582480	1500	32
1	3690374	1520	26
1	3799724	1540	22
1	3911990	1560	16
1	4025620	1580	16
1	4142417	1600	15
1	4261175	1620	17
1	4382163	1640	27
1	4505859	1660	23
1	4631654	1680	18
1	4759490	1700	23
1	4889885	1720	21
1	5022332	1740	27
1	5157479	1760	17
1	5295181	1780	14
1	5434458	1800	25
1	5577233	1820	17
1	5721893	1840	21
1	5868812	1860	17
1	6018473	1880	15
1	6170609	1900	28
1	6324561	1920	29
1	6481162	1940	15
1	6641085	1960	22
1	6803184	1980	25
1	6967930	2000	18
2	145025	240	66
2	171034	260	73
2	198243	280	76
2	225382	300	74
2	252933	320	79
2	280266	340	77
2	307432	360	67
2	334844	380	71
2	362587	400	74
2	390378	420	86
2	419002	440	84
2	448211	460	76
2	477817	480	78
2	507953	500	72
2	538976	520	88
2	570994	540	89
2	603414	560	77
2	636567	580	94
2	670459	600	84
2	705164	620	80
2	740644	640	75
2	777019	660	94
2	815087	680	100
2	854008	700	98
2	894145	720	82
2	935965	740	91
2	979245	760	102
2	1022777	780	98
2	1067808	800	91
2	1113916	820	87
2	1160784	840	98
2	1209202	860	109
2	1258587	880	96
2	1309678	900	88
2	1360983	920	109
2	1414239	940	96
2	1468750	960	104
2	1524596	980	104
2	1581575	1000	106
2	1640822	1020	112
2	1700795	1040	118
2	1762547	1060	107
2	1826108	1080	114
2	1891117	1100	129
2	1957129	1120	105
2	2025183	1140	113
2	2094455	1160	101
2	2165891	1180	124
2	2239297	1200	112
2	2315155	1220	116
2	2391970	1240	120
2	2470945	1260	122
2	2551858	1280	122
2	2635411	1300	115
2	2720265	1320	114
2	2807830	1340	127
2	2897394	1360	131
2	2989275	1380	120
2	3082740	1400	131
2	3178522	1420	135
2	3276090	1440	135
2	3376089	1460	120
2	3478256	1480	114
2	3582480	1500	110
2	3690374	1520	119
2	3799724	1540	127
2	3911990	1560	139
2	4025620	1580	140
2	4142417	1600	143
2	4261175	1620	142
2	4382163	1640	129
2	4505859	1660	134
2	4631654	1680	143
2	4759490	1700	137
2	4889885	1720	140
2	5022332	1740	132
2	5157479	1760	149
2	5295181	1780	159
2	5434458	1800	137
2	5577233	1820	153
2	5721893	1840	145
2	5868812	1860	156
2	6018473	1880	162
2	6170609	1900	143
2	6324561	1920	143
2	6481162	1940	165
2	6641085	1960	156
2	6803184	1980	150
2	6967930	2000	164
3	145025	240	0
3	171034	260	0
3	198243	280	0
3	225382	300	4
3	252933	320	2
3	280266	340	0
3	307432	360	3
3	334844	380	1
3	362587	400	0
3	390378	420	3
3	419002	440	3
3	448211	460	2
3	477817	480	1
3	507953	500	1
3	538976	520	2
3	570994	540	1
3	603414	560	6
3	636567	580	2
3	670459	600	1
3	705164	620	2
3	740644	640	3
3	777019	660	1
3	815087	680	0
3	854008	700	3
3	894145	720	7
3	935965	740	5
3	979245	760	2
3	1022777	780	5
3	1067808	800	2
3	1113916	820	4
3	1160784	840	3
3	1209202	860	2
3	1258587	880	3
3	1309678	900	2
3	1360983	920	3
3	1414239	940	4
3	1468750	960	3
3	1524596	980	4
3	1581575	1000	2
3	1640822	1020	2
3	1700795	1040	1
3	1762547	1060	6
3	1826108	1080	2
3	1891117	1100	4
3	1957129	1120	2
3	2025183	1140	4
3	2094455	1160	2
3	2165891	1180	6
3	2239297	1200	6
3	2315155	1220	2
3	2391970	1240	1
3	2470945	1260	3
3	2551858	1280	2
3	2635411	1300	4
3	2720265	1320	4
3	2807830	1340	6
3	2897394	1360	2
3	2989275	1380	2
3	3082740	1400	5
3	3178522	1420	3
3	3276090	1440	2
3	3376089	1460	1
3	3478256	1480	5
3	3582480	1500	3
3	3690374	1520	2
3	3799724	1540	2
3	3911990	1560	3
3	4025620	1580	4
3	4142417	1600	3
3	4261175	1620	4
3	4382163	1640	6
3	4505859	1660	2
3	4631654	1680	2
3	4759490	1700	8
3	4889885	1720	5
3	5022332	1740	3
3	5157479	1760	7
3	5295181	1780	1
3	5434458	1800	2
3	5577233	1820	4
3	5721893	1840	3
3	5868812	1860	1
3	6018473	1880	2
3	6170609	1900	5
3	6324561	1920	1
3	6481162	1940	3
3	6641085	1960	5
3	6803184	1980	3
3	6967930	2000	2
4	145025	240	1.4
4	171034	260	1.1666666666667
4	198243	280	1.6666666666667
4	225382	300	1.2222222222222
4	252933	320	1.6666666666667
4	280266	340	1.25
4	307432	360	1.1666666666667
4	334844	380	1.3
4	362587	400	1.375
4	390378	420	1.25
4	419002	440	1.1666666666667
4	448211	460	1.2
4	477817	480	1.75
4	507953	500	1.5454545454545
4	538976	520	1.3333333333333
4	570994	540	1.3333333333333
4	603414	560	1.2307692307692
4	636567	580	1.6
4	670459	600	1.3
4	705164	620	1.1428571428571
4	740644	640	1.5
4	777019	660	1.2857142857143
4	815087	680	1.2
4	854008	700	1.8
4	894145	720	1.5384615384615
4	935965	740	1.1666666666667
4	979245	760	1.6666666666667
4	1022777	780	1.5
4	1067808	800	1.5
4	1113916	820	1.6153846153846
4	1160784	840	1.1818181818182
4	1209202	860	1.3333333333333
4	1258587	880	1.3076923076923
4	1309678	900	1.4375
4	1360983	920	1.375
4	1414239	940	1.4615384615385
4	1468750	960	1.2727272727273
4	1524596	980	1.4545454545455
4	1581575	1000	1.25
4	1640822	1020	1.75
4	1700795	1040	1.5
4	1762547	1060	1.2307692307692
4	1826108	1080	1.2727272727273
4	1891117	1100	1.25
4	1957129	1120	1.4
4	2025183	1140	1.2307692307692
4	2094455	1160	1.4117647058824
4	2165891	1180	1.25
4	2239297	1200	1.5833333333333
4	2315155	1220	1.4166666666667
4	2391970	1240	1.25
4	2470945	1260	1.4545454545455
4	2551858	1280	1.0833333333333
4	2635411	1300	1.5
4	2720265	1320	1.7142857142857
4	2807830	1340	1.6
4	2897394	1360	1.5
4	2989275	1380	1.25
4	3082740	1400	1.4545454545455
4	3178522	1420	1.4
4	3276090	1440	1.5
4	3376089	1460	1.2105263157895
4	3478256	1480	1.35
4	3582480	1500	1.5238095238095
4	3690374	1520	1.4444444444444
4	3799724	1540	1.375
4	3911990	1560	1.3333333333333
4	4025620	1580	1.4545454545455
4	4142417	1600	1.3636363636364
4	4261175	1620	1.5454545454545
4	4382163	1640	1.5882352941176
4	4505859	1660	1.4375
4	4631654	1680	1.6363636363636
4	4759490	1700	1.4375
4	4889885	1720	1.4
4	5022332	1740	1.5
4	5157479	1760	1.4166666666667
4	5295181	1780	1.5555555555556
4	5434458	1800	1.3157894736842
4	5577233	1820	1.3076923076923
4	5721893	1840	1.2352941176471
4	5868812	1860	1.4166666666667
4	6018473	1880	1.5
4	6170609	1900	1.6470588235294
4	6324561	1920	1.8125
4	6481162	1940	1.25
4	6641085	1960	1.5714285714286
4	6803184	1980	1.4705882352941
4	6967930	2000	1.5
5	145025	240	0.54772255750517
5	171034	260	0.40824829046386
5	198243	280	0.51639777949432
5	225382	300	0.4409585518441
5	252933	320	0.51639777949432
5	280266	340	0.46291004988628
5	307432	360	0.38924947208076
5	334844	380	0.48304589153965
5	362587	400	0.51754916950677
5	390378	420	0.5
5	419002	440	0.40824829046386
5	448211	460	0.42163702135578
5	477817	480	0.46291004988628
5	507953	500	0.52223296786709
5	538976	520	0.51639777949432
5	570994	540	0.51639777949432
5	603414	560	0.43852900965351
5	636567	580	0.54772255750517
5	670459	600	0.48304589153965
5	705164	620	0.36313651960128
5	740644	640	0.51887452166277
5	777019	660	0.48795003647427
5	815087	680	0.44721359549996
5	854008	700	0.44721359549996
5	894145	720	0.51887452166277
5	935965	740	0.38924947208076
5	979245	760	0.51639777949432
5	1022777	780	0.53452248382485
5	1067808	800	0.52223296786709
5	1113916	820	0.50636968354183
5	1160784	840	0.40451991747795
5	1209202	860	0.51639777949432
5	1258587	880	0.48038446141526
5	1309678	900	0.6291528696059
5	1360983	920	0.51754916950677
5	1414239	940	0.51887452166277
5	1468750	960	0.46709936649691
5	1524596	980	0.52223296786709
5	1581575	1000	0.45226701686665
5	1640822	1020	0.46291004988628
5	1700795	1040	0.54772255750517
5	1762547	1060	0.43852900965351
5	1826108	1080	0.46709936649691
5	1891117	1100	0.5
5	1957129	1120	0.50709255283711
5	2025183	1140	0.43852900965351
5	2094455	1160	0.50729965619589
5	2165891	1180	0.46291004988628
5	2239297	1200	0.66855792342152
5	2315155	1220	0.51492865054444
5	2391970	1240	0.45226701686665
5	2470945	1260	0.52223296786709
5	2551858	1280	0.28867513459481
5	2635411	1300	0.51887452166277
5	2720265	1320	0.4688072309385
5	2807830	1340	0.51639777949432
5	2897394	1360	0.52704627669473
5	2989275	1380	0.44721359549996
5	3082740	1400	0.52223296786709
5	3178522	1420	0.51639777949432
5	3276090	1440	0.70710678118655
5	3376089	1460	0.4188539082917
5	3478256	1480	0.48936048492959
5	3582480	1500	0.60158520751824
5	3690374	1520	0.51130999256491
5	3799724	1540	0.5
5	3911990	1560	0.65133894727893
5	4025620	1580	0.52223296786709
5	4142417	1600	0.50452497910951
5	4261175	1620	0.52223296786709
5	4382163	1640	0.50729965619589
5	4505859	1660	0.51234753829798
5	4631654	1680	0.50452497910951
5	4759490	1700	0.6291528696059
5	4889885	1720	0.50709255283711
5	5022332	1740	0.61834694240084
5	5157479	1760	0.51492865054444
5	5295181	1780	0.52704627669473
5	5434458	1800	0.47756693294092
5	5577233	1820	0.48038446141526
5	5721893	1840	0.4372373160976
5	5868812	1860	0.51492865054444
5	6018473	1880	0.52704627669473
5	6170609	1900	0.60633906259083
5	6324561	1920	0.54390562906936
5	6481162	1940	0.45226701686665
5	6641085	1960	0.5135525910131
5	6803184	1980	0.51449575542753
5	6967930	2000	0.67419986246324
6	145025	240	0.3
6	171034	260	0.16666666666667
6	198243	280	0.26666666666667
6	225382	300	0.19444444444444
6	252933	320	0.26666666666667
6	280266	340	0.21428571428571
6	307432	360	0.15151515151515
6	334844	380	0.23333333333333
6	362587	400	0.26785714285714
6	390378	420	0.25
6	419002	440	0.16666666666667
6	448211	460	0.17777777777778
6	477817	480	0.21428571428571
6	507953	500	0.27272727272727
6	538976	520	0.26666666666667
6	570994	540	0.26666666666667
6	603414	560	0.19230769230769
6	636567	580	0.3
6	670459	600	0.23333333333333
6	705164	620	0.13186813186813
6	740644	640	0.26923076923077
6	777019	660	0.23809523809524
6	815087	680	0.2
6	854008	700	0.2
6	894145	720	0.26923076923077
6	935965	740	0.15151515151515
6	979245	760	0.26666666666667
6	1022777	780	0.28571428571429
6	1067808	800	0.27272727272727
6	1113916	820	0.25641025641026
6	1160784	840	0.16363636363636
6	1209202	860	0.26666666666667
6	1258587	880	0.23076923076923
6	1309678	900	0.39583333333333
6	1360983	920	0.26785714285714
6	1414239	940	0.26923076923077
6	1468750	960	0.21818181818182
6	1524596	980	0.27272727272727
6	1581575	1000	0.20454545454545
6	1640822	1020	0.21428571428571
6	1700795	1040	0.3
6	1762547	1060	0.19230769230769
6	1826108	1080	0.21818181818182
6	1891117	1100	0.25
6	1957129	1120	0.25714285714286
6	2025183	1140	0.19230769230769
6	2094455	1160	0.25735294117647
6	2165891	1180	0.21428571428571
6	2239297	1200	0.4469696969697
6	2315155	1220	0.26515151515152
6	2391970	1240	0.20454545454545
6	2470945	1260	0.27272727272727
6	2551858	1280	0.083333333333333
6	2635411	1300	0.26923076923077
6	2720265	1320	0.21978021978022
6	2807830	1340	0.26666666666667
6	2897394	1360	0.27777777777778
6	2989275	1380	0.2
6	3082740	1400	0.27272727272727
6	3178522	1420	0.26666666666667
6	3276090	1440	0.5
6	3376089	1460	0.17543859649123
6	3478256	1480	0.23947368421053
6	3582480	1500	0.36190476190476
6	3690374	1520	0.26143790849673
6	3799724	1540	0.25
6	3911990	1560	0.42424242424242
6	4025620	1580	0.27272727272727
6	4142417	1600	0.25454545454545
6	4261175	1620	0.27272727272727
6	4382163	1640	0.25735294117647
6	4505859	1660	0.2625
6	4631654	1680	0.25454545454545
6	4759490	1700	0.39583333333333
6	4889885	1720	0.25714285714286
6	5022332	1740	0.38235294117647
6	5157479	1760	0.26515151515152
6	5295181	1780	0.27777777777778
6	5434458	1800	0.2280701754386
6	5577233	1820	0.23076923076923
6	5721893	1840	0.19117647058824
6	5868812	1860	0.26515151515152
6	6018473	1880	0.27777777777778
6	6170609	1900	0.36764705882353
6	6324561	1920	0.29583333333333
6	6481162	1940	0.20454545454545
6	6641085	1960	0.26373626373626
6	6803184	1980	0.26470588235294
6	6967930	2000	0.45454545454545
7	145025	240	22.628205128205
7	171034	260	22.627906976744
7	198243	280	22.358695652174
7	225382	300	22.397849462366
7	252933	320	22.410526315789
7	280266	340	22.210526315789
7	307432	360	22.333333333333
7	334844	380	22.425531914894
7	362587	400	22.290322580645
7	390378	420	21.852631578947
7	419002	440	22.25
7	448211	460	22.122448979592
7	477817	480	22.17
7	507953	500	22.21
7	538976	520	22.683168316832
7	570994	540	22.73786407767
7	603414	560	23.103773584906
7	636567	580	23.046728971963
7	670459	600	23.952830188679
7	705164	620	23.490909090909
7	740644	640	24.490909090909
7	777019	660	24.781818181818
7	815087	680	25.297297297297
7	854008	700	25.607142857143
7	894145	720	26.15652173913
7	935965	740	26.615384615385
7	979245	760	27.838983050847
7	1022777	780	27.466101694915
7	1067808	800	27.98347107438
7	1113916	820	28.710743801653
7	1160784	840	28.631147540984
7	1209202	860	28.983606557377
7	1258587	880	29.460317460317
7	1309678	900	30.212598425197
7	1360983	920	30.165354330709
7	1414239	940	30.28125
7	1468750	960	31.434108527132
7	1524596	980	31.206106870229
7	1581575	1000	31.511278195489
7	1640822	1020	32.544776119403
7	1700795	1040	32.984962406015
7	1762547	1060	33.470588235294
7	1826108	1080	33.525179856115
7	1891117	1100	34.630434782609
7	1957129	1120	34.957446808511
7	2025183	1140	35.204225352113
7	2094455	1160	35.697183098592
7	2165891	1180	36.577464788732
7	2239297	1200	37.937062937063
7	2315155	1220	38.296551724138
7	2391970	1240	38.816326530612
7	2470945	1260	38.885906040268
7	2551858	1280	40.163265306122
7	2635411	1300	41.186666666667
7	2720265	1320	41.236842105263
7	2807830	1340	42.209150326797
7	2897394	1360	42.954838709677
7	2989275	1380	43.205128205128
7	3082740	1400	44
7	3178522	1420	45.018987341772
7	3276090	1440	45.41875
7	3376089	1460	46.055555555556
7	3478256	1480	47.031055900621
7	3582480	1500	47.827160493827
7	3690374	1520	48.687116564417
7	3799724	1540	49.4
7	3911990	1560	50.006024096386
7	4025620	1580	50.467065868263
7	4142417	1600	51.065476190476
7	4261175	1620	51.323529411765
7	4382163	1640	51.485549132948
7	4505859	1660	52.421965317919
7	4631654	1680	53.238372093023
7	4759490	1700	53.232954545455
7	4889885	1720	54.176136363636
7	5022332	1740	54.525423728814
7	5157479	1760	55.196629213483
7	5295181	1780	55.021978021978
7	5434458	1800	55.933701657459
7	5577233	1820	56.551912568306
7	5721893	1840	57.005464480874
7	5868812	1860	57.464864864865
7	6018473	1880	58.021390374332
7	6170609	1900	58.627659574468
7	6324561	1920	59.260638297872
7	6481162	1940	59.429319371728
7	6641085	1960	60.140625
7	6803184	1980	60.8125
7	6967930	2000	61.051546391753
8	145025	240	4.2521468202254
8	171034	260	4.7304931010921
8	198243	280	4.5707659726444
8	225382	300	4.3517607254851
8	252933	320	4.7299290104027
8	280266	340	4.3586420314523
8	307432	360	3.9461961137424
8	334844	380	4.231193333547
8	362587	400	4.2772925334316
8	390378	420	4.9227401577469
8	419002	440	4.2426406871193
8	448211	460	3.998106010679
8	477817	480	4.7525750595829
8	507953	500	4.6019209866834
8	538976	520	3.7760579790816
8	570994	540	3.6054456770784
8	603414	560	3.3005893998411
8	636567	580	3.4895617326862
8	670459	600	2.519947374627
8	705164	620	3.6516816649984
8	740644	640	4.0631380617807
8	777019	660	3.5822749631474
8	815087	680	4.235337476292
8	854008	700	5.0872692950451
8	894145	720	5.3714503649988
8	935965	740	6.4978061998755
8	979245	760	6.7873315111644
8	1022777	780	6.6624117234284
8	1067808	800	7.6637495947636
8	1113916	820	7.9471567415952
8	1160784	840	8.0342251573427
8	1209202	860	8.4657634340684
8	1258587	880	8.9734281463894
8	1309678	900	9.3262132035682
8	1360983	920	9.2853902820998
8	1414239	940	9.4050895084213
8	1468750	960	10.524409841857
8	1524596	980	10.375798436192
8	1581575	1000	11.114838935673
8	1640822	1020	11.373769897392
8	1700795	1040	11.718274359984
8	1762547	1060	12.268563365726
8	1826108	1080	13.208654900444
8	1891117	1100	13.810540820902
8	1957129	1120	14.089445056711
8	2025183	1140	14.115299647809
8	2094455	1160	14.644239511632
8	2165891	1180	15.287469463751
8	2239297	1200	16.104070338078
8	2315155	1220	16.80282885324
8	2391970	1240	16.887630395819
8	2470945	1260	17.35150519265
8	2551858	1280	17.480729435396
8	2635411	1300	19.26027544691
8	2720265	1320	19.21531427129
8	2807830	1340	19.556145081726
8	2897394	1360	20.143427897799
8	2989275	1380	20.614031534673
8	3082740	1400	21.576408442414
8	3178522	1420	21.902060956157
8	3276090	1440	22.861483875036
8	3376089	1460	23.113882252772
8	3478256	1480	23.743268088094
8	3582480	1500	23.611393251268
8	3690374	1520	24.860231883247
8	3799724	1540	25.116751770725
8	3911990	1560	25.186936726647
8	4025620	1580	25.999254954834
8	4142417	1600	26.276999774273
8	4261175	1620	26.373647180018
8	4382163	1640	26.635264030197
8	4505859	1660	26.789684379222
8	4631654	1680	27.3041378892
8	4759490	1700	27.057552298086
8	4889885	1720	27.37981944767
8	5022332	1740	27.508896865917
8	5157479	1760	27.917363729642
8	5295181	1780	28.519636744596
8	5434458	1800	27.815583603829
8	5577233	1820	28.727141589521
8	5721893	1840	29.015815556227
8	5868812	1860	29.497975393091
8	6018473	1880	29.679100430396
8	6170609	1900	29.846661255089
8	6324561	1920	30.282116351295
8	6481162	1940	30.245904099522
8	6641085	1960	30.975518379429
8	6803184	1980	30.741895454341
8	6967930	2000	31.459117687551
9	145025	240	18.080752580753
9	171034	260	22.37756497948
9	198243	280	20.891901576684
9	225382	300	18.937821411875
9	252933	320	22.372228443449
9	280266	340	18.997760358343
9	307432	360	15.572463768116
9	334844	380	17.902997025852
9	362587	400	18.29523141655
9	390378	420	24.233370660694
9	419002	440	18
9	448211	460	15.984851672628
9	477817	480	22.58696969697
9	507953	500	21.177676767677
9	538976	520	14.258613861386
9	570994	540	12.999238530364
9	603414	560	10.893890386343
9	636567	580	12.177041086228
9	670459	600	6.3501347708895
9	705164	620	13.334778982485
9	740644	640	16.509090909091
9	777019	660	12.832693911593
9	815087	680	17.938083538084
9	854008	700	25.880308880309
9	894145	720	28.852479023646
9	935965	740	42.221485411141
9	979245	760	46.067869042445
9	1022777	780	44.387729972476
9	1067808	800	58.73305785124
9	1113916	820	63.157300275482
9	1160784	840	64.548773878878
9	1209202	860	71.66915052161
9	1258587	880	80.522412698413
9	1309678	900	86.97825271841
9	1360983	920	86.218472690914
9	1414239	940	88.455708661417
9	1468750	960	110.76320251938
9	1524596	980	107.65719318849
9	1581575	1000	123.53964456596
9	1640822	1020	129.36264167882
9	1700795	1040	137.31795397585
9	1762547	1060	150.51764705882
9	1826108	1080	174.46856427901
9	1891117	1100	190.73103776579
9	1957129	1120	198.51246200608
9	2025183	1140	199.24168414744
9	2094455	1160	214.45375087404
9	2165891	1180	233.70672260513
9	2239297	1200	259.34108145376
9	2315155	1220	282.33505747126
9	2391970	1240	285.1920603858
9	2470945	1260	301.07473245057
9	2551858	1280	305.57590159351
9	2635411	1300	370.95821029083
9	2720265	1320	369.22830254444
9	2807830	1340	382.44281045752
9	2897394	1360	405.75768747382
9	2989275	1380	424.93829611249
9	3082740	1400	465.54140127389
9	3178522	1420	479.70027412723
9	3276090	1440	522.64744496855
9	3376089	1460	534.25155279503
9	3478256	1480	563.74277950311
9	3582480	1500	557.49789126601
9	3690374	1520	618.0311292888
9	3799724	1540	630.8512195122
9	3911990	1560	634.38178167214
9	4025620	1580	675.96125820648
9	4142417	1600	690.48071713715
9	4261175	1620	695.56926557605
9	4382163	1640	709.43728995833
9	4505859	1660	717.68718913833
9	4631654	1680	745.51594587243
9	4759490	1700	732.11113636364
9	4889885	1720	749.65451298701
9	5022332	1740	756.73940677966
9	5157479	1760	779.37919761315
9	5295181	1780	813.36968004371
9	5434458	1800	773.70669122161
9	5577233	1820	825.2486639044
9	5721893	1840	841.91755239296
9	5868812	1860	870.13055229142
9	6018473	1880	880.84900235754
9	6170609	1900	890.823188076
9	6324561	1920	917.00657071339
9	6481162	1940	914.81471479746
9	6641085	1960	959.48273887435
9	6803184	1980	945.06413612565
9	6967930	2000	989.67608567918
10	145025	240	241.72700874816
10	171034	260	288.38746514456
10	198243	280	282.97273211278
10	225382	300	433.01266253722
10	252933	320	290.26364829337
10	280266	340	389.85061567589
10	307432	360	589.05310932726
10	334844	380	510.65636879878
10	362587	400	378.67714479178
10	390378	420	190.56145001295
10	419002	440	304.87952905475
10	448211	460	500.66644435684
10	477817	480	384.00888504634
10	507953	500	545.97460962406
10	538976	520	290.58528274213
10	570994	540	292.32211165064
10	603414	560	628.86261932007
10	636567	580	246.21861637379
10	670459	600	489.3533682491
10	705164	620	680.33464748253
10	740644	640	677.43552440335
10	777019	660	349.07235577618
10	815087	680	250.7317469312
10	854008	700	244.22062558749
10	894145	720	646.9555545857
10	935965	740	580.90351068643
10	979245	760	297.17174432989
10	1022777	780	397.80379645169
10	1067808	800	602.81101050844
10	1113916	820	647.75798858945
10	1160784	840	539.04014670891
10	1209202	860	301.19669353693
10	1258587	880	662.37433003125
10	1309678	900	795.97445201989
10	1360983	920	393.88406799135
10	1414239	940	654.25526495706
10	1468750	960	541.35723906851
10	1524596	980	559.49722941606
10	1581575	1000	605.29775782076
10	1640822	1020	413.95259096953
10	1700795	1040	308.4429903832
10	1762547	1060	655.75836948588
10	1826108	1080	544.32554264198
10	1891117	1100	203.18804952236
10	1957129	1120	747.41678899591
10	2025183	1140	644.73768567811
10	2094455	1160	843.58256081538
10	2165891	1180	388.1863386421
10	2239297	1200	607.18703457348
10	2315155	1220	605.66576203387
10	2391970	1240	602.24095008978
10	2470945	1260	554.58476125078
10	2551858	1280	609.10392416985
10	2635411	1300	698.92395066692
10	2720265	1320	707.03319534079
10	2807830	1340	507.47357810472
10	2897394	1360	514.80273677842
10	2989275	1380	805.17652199757
10	3082740	1400	556.61652490777
10	3178522	1420	512.64684320812
10	3276090	1440	492.25416369943
10	3376089	1460	961.60076750315
10	3478256	1480	1014.4911377948
10	3582480	1500	1070.1209159837
10	3690374	1520	920.59157277829
10	3799724	1540	801.67743080978
10	3911990	1560	599.48114372947
10	4025620	1580	550.72272903818
10	4142417	1600	558.43186393678
10	4261175	1620	561.66308985334
10	4382163	1640	861.84807378376
10	4505859	1660	810.0986908246
10	4631654	1680	557.43877101206
10	4759490	1700	793.23167498431
10	4889885	1720	761.20128349957
10	5022332	1740	892.08870496965
10	5157479	1760	604.34856203411
10	5295181	1780	477.77622046462
10	5434458	1800	961.16684325786
10	5577233	1820	668.44835589692
10	5721893	1840	850.70479619363
10	5868812	1860	603.01664226765
10	6018473	1880	508.50614029934
10	6170609	1900	860.56902654165
10	6324561	1920	807.51930339925
10	6481162	1940	605.3435158273
10	6641085	1960	711.51705577993
10	6803184	1980	867.23570728711
10	6967930	2000	606.66163720315
11	145025	240	48.345401749631
11	171034	260	48.064577524093
11	198243	280	47.162122018796
11	225382	300	48.112518059691
11	252933	320	48.377274715562
11	280266	340	48.731326959486
11	307432	360	49.087759110605
11	334844	380	51.065636879878
11	362587	400	47.334643098972
11	390378	420	47.640362503237
11	419002	440	50.813254842458
11	448211	460	50.066644435684
11	477817	480	48.001110630793
11	507953	500	49.634055420369
11	538976	520	48.430880457021
11	570994	540	48.720351941773
11	603414	560	48.374047640006
11	636567	580	49.243723274758
11	670459	600	48.93533682491
11	705164	620	48.595331963038
11	740644	640	48.388251743096
11	777019	660	49.867479396597
11	815087	680	50.14634938624
11	854008	700	48.844125117498
11	894145	720	49.765811891208
11	935965	740	48.408625890536
11	979245	760	49.528624054982
11	1022777	780	49.725474556462
11	1067808	800	50.234250875704
11	1113916	820	49.827537583804
11	1160784	840	49.00364970081
11	1209202	860	50.199448922822
11	1258587	880	50.951871540865
11	1309678	900	49.748403251243
11	1360983	920	49.235508498918
11	1414239	940	50.32732807362
11	1468750	960	49.214294460773
11	1524596	980	50.863384492369
11	1581575	1000	50.441479818397
11	1640822	1020	51.744073871192
11	1700795	1040	51.407165063867
11	1762547	1060	50.442951498914
11	1826108	1080	49.48414024018
11	1891117	1100	50.797012380591
11	1957129	1120	49.827785933061
11	2025183	1140	49.595206590624
11	2094455	1160	49.622503577375
11	2165891	1180	48.523292330263
11	2239297	1200	50.59891954779
11	2315155	1220	50.472146836156
11	2391970	1240	50.186745840815
11	2470945	1260	50.416796477344
11	2551858	1280	50.758660347487
11	2635411	1300	49.923139333352
11	2720265	1320	50.502371095771
11	2807830	1340	50.747357810472
11	2897394	1360	51.480273677842
11	2989275	1380	50.323532624848
11	3082740	1400	50.601502264343
11	3178522	1420	51.264684320812
11	3276090	1440	49.225416369943
11	3376089	1460	50.610566710692
11	3478256	1480	50.724556889738
11	3582480	1500	50.958138856365
11	3690374	1520	51.143976265461
11	3799724	1540	50.104839425611
11	3911990	1560	49.956761977456
11	4025620	1580	50.065702639834
11	4142417	1600	50.766533085161
11	4261175	1620	51.060280895758
11	4382163	1640	50.696945516692
11	4505859	1660	50.631168176538
11	4631654	1680	50.676251910188
11	4759490	1700	49.57697968652
11	4889885	1720	50.746752233304
11	5022332	1740	49.560483609425
11	5157479	1760	50.362380169509
11	5295181	1780	53.086246718291
11	5434458	1800	50.587728592519
11	5577233	1820	51.419104299763
11	5721893	1840	50.041458599625
11	5868812	1860	50.251386855637
11	6018473	1880	50.850614029934
11	6170609	1900	50.621707443626
11	6324561	1920	50.469956462453
11	6481162	1940	50.445292985608
11	6641085	1960	50.822646841423
11	6803184	1980	51.013865134536
11	6967930	2000	50.555136433596
12	145025	240	2.3608302556733
12	171034	260	3.1672082296754
12	198243	280	1.3987448018336
12	225382	300	3.0668266795377
12	252933	320	1.9357405084881
12	280266	340	1.8456034086143
12	307432	360	2.6552274039912
12	334844	380	3.4236123169451
12	362587	400	0.99331385379953
12	390378	420	0.80695682442973
12	419002	440	3.9130671135642
12	448211	460	5.1479116248531
12	477817	480	2.0270773030722
12	507953	500	2.0811553437626