version 2
run statisticRVV-5-20150324-23:35:27-3328
attr c 14
attr configname statisticRVV
attr datetime 20150324-23:35:27
attr experiment statisticRVV
attr inifile omnetpp.ini
attr iterationvars "$sc=\"erlangen-low.launchd.xml\", $p=1/15, $c=14"
attr iterationvars2 "$sc=\"erlangen-low.launchd.xml\", $p=1/15, $c=14, $repetition=5"
attr measurement "$sc=\"erlangen-low.launchd.xml\", $p=1/15, $c=14"
attr network RSUExampleScenario
attr p 1/15
attr processid 3328
attr repetition 5
attr replication #5
attr resultdir results
attr runnumber 5
attr sc "\"erlangen-low.launchd.xml\""
attr seedset 5

vector 0  RSUExampleScenario.rsu[0].appl  Number_CH  ETV
vector 1  RSUExampleScenario.rsu[0].appl  Number_ON  ETV
vector 2  RSUExampleScenario.rsu[0].appl  Number_FN  ETV
vector 3  RSUExampleScenario.rsu[0].appl  Number_CH_Losts  ETV
vector 4  RSUExampleScenario.rsu[0].appl  Mean_Cluster_Size  ETV
vector 5  RSUExampleScenario.rsu[0].appl  StdDev_Cluster_Size  ETV
vector 6  RSUExampleScenario.rsu[0].appl  Variance_Cluster_Size  ETV
vector 7  RSUExampleScenario.rsu[0].appl  Mean_Neighbors  ETV
vector 8  RSUExampleScenario.rsu[0].appl  StdDev_Neighbors  ETV
vector 9  RSUExampleScenario.rsu[0].appl  Variance_Neighbors  ETV
vector 10  RSUExampleScenario.rsu[0].appl  Total_CH_Utility  ETV
vector 11  RSUExampleScenario.rsu[0].appl  Mean_CH_Utility  ETV
vector 12  RSUExampleScenario.rsu[0].appl  StdDev_CH_Utility  ETV
vector 13  RSUExampleScenario.rsu[0].appl  Variance_CH_Utility  ETV
vector 14  RSUExampleScenario.rsu[0].appl  Total_exp_CH_Utility  ETV
vector 15  RSUExampleScenario.rsu[0].appl  Mean_exp_CH_Utility  ETV
vector 16  RSUExampleScenario.rsu[0].appl  StdDev_exp_CH_Utility  ETV
vector 17  RSUExampleScenario.rsu[0].appl  Variance_exp_CH_Utility  ETV
vector 18  RSUExampleScenario.rsu[0].appl  Total_ON_Utility  ETV
vector 19  RSUExampleScenario.rsu[0].appl  Mean_ON_Utility  ETV
vector 20  RSUExampleScenario.rsu[0].appl  StdDev_ON_Utility  ETV
vector 21  RSUExampleScenario.rsu[0].appl  Variance_ON_Utility  ETV
vector 22  RSUExampleScenario.rsu[0].appl  Total_exp_ON_Utility  ETV
vector 23  RSUExampleScenario.rsu[0].appl  Mean_exp_ON_Utility  ETV
vector 24  RSUExampleScenario.rsu[0].appl  StdDev_exp_ON_Utility  ETV
vector 25  RSUExampleScenario.rsu[0].appl  Variance_exp_ON_Utility  ETV
0	34621	240	0
0	39868	260	2
0	45203	280	1
0	50505	300	2
0	55861	320	2
0	61151	340	4
0	66372	360	4
0	71611	380	4
0	76983	400	2
0	82284	420	4
0	87631	440	4
0	92907	460	1
0	98142	480	1
0	103463	500	3
0	108776	520	1
0	114117	540	2
0	119379	560	3
0	124688	580	1
0	130036	600	1
0	135322	620	4
0	140642	640	0
0	145979	660	2
0	151365	680	1
0	156783	700	1
0	162151	720	3
0	167519	740	1
0	172874	760	2
0	178244	780	2
0	183612	800	3
0	188884	820	5
0	194237	840	0
0	199637	860	5
0	204984	880	3
0	210225	900	1
0	215544	920	3
0	220785	940	2
0	226128	960	6
0	231463	980	3
0	236725	1000	0
0	242003	1020	4
0	247358	1040	1
0	252618	1060	3
0	257860	1080	1
0	263156	1100	3
0	268408	1120	1
0	273669	1140	2
0	279023	1160	2
0	284346	1180	0
0	289701	1200	1
0	295054	1220	0
0	300379	1240	1
0	305700	1260	3
0	311037	1280	1
0	316354	1300	2
0	321708	1320	1
0	327015	1340	2
0	332320	1360	2
0	337615	1380	2
0	343031	1400	1
0	348371	1420	3
0	353793	1440	1
0	359089	1460	3
0	364331	1480	1
0	369522	1500	0
0	374899	1520	3
0	380272	1540	2
0	385649	1560	4
0	391020	1580	1
0	396369	1600	1
0	401619	1620	2
0	406857	1640	3
0	412267	1660	0
0	417486	1680	1
0	422918	1700	3
0	428387	1720	1
0	433735	1740	2
0	439098	1760	0
0	444484	1780	1
0	449681	1800	3
0	454567	1820	1
0	458798	1840	3
0	462660	1860	3
0	465959	1880	2
0	468888	1900	2
0	471342	1920	1
0	473314	1940	1
0	474811	1960	0
0	475840	1980	0
0	476440	2000	1
1	34621	240	0
1	39868	260	3
1	45203	280	1
1	50505	300	3
1	55861	320	2
1	61151	340	4
1	66372	360	4
1	71611	380	5
1	76983	400	4
1	82284	420	5
1	87631	440	6
1	92907	460	2
1	98142	480	1
1	103463	500	4
1	108776	520	1
1	114117	540	3
1	119379	560	5
1	124688	580	1
1	130036	600	1
1	135322	620	6
1	140642	640	0
1	145979	660	3
1	151365	680	1
1	156783	700	1
1	162151	720	3
1	167519	740	1
1	172874	760	2
1	178244	780	2
1	183612	800	5
1	188884	820	7
1	194237	840	0
1	199637	860	6
1	204984	880	4
1	210225	900	2
1	215544	920	5
1	220785	940	2
1	226128	960	8
1	231463	980	4
1	236725	1000	0
1	242003	1020	5
1	247358	1040	1
1	252618	1060	5
1	257860	1080	1
1	263156	1100	6
1	268408	1120	1
1	273669	1140	3
1	279023	1160	2
1	284346	1180	0
1	289701	1200	1
1	295054	1220	0
1	300379	1240	1
1	305700	1260	6
1	311037	1280	1
1	316354	1300	3
1	321708	1320	1
1	327015	1340	3
1	332320	1360	3
1	337615	1380	3
1	343031	1400	1
1	348371	1420	3
1	353793	1440	2
1	359089	1460	6
1	364331	1480	2
1	369522	1500	0
1	374899	1520	3
1	380272	1540	2
1	385649	1560	4
1	391020	1580	1
1	396369	1600	1
1	401619	1620	2
1	406857	1640	4
1	412267	1660	0
1	417486	1680	1
1	422918	1700	5
1	428387	1720	1
1	433735	1740	3
1	439098	1760	0
1	444484	1780	2
1	449681	1800	4
1	454567	1820	1
1	458798	1840	3
1	462660	1860	3
1	465959	1880	3
1	468888	1900	2
1	471342	1920	2
1	473314	1940	1
1	474811	1960	0
1	475840	1980	0
1	476440	2000	2
2	34621	240	40
2	39868	260	34
2	45203	280	38
2	50505	300	36
2	55861	320	37
2	61151	340	32
2	66372	360	31
2	71611	380	32
2	76983	400	35
2	82284	420	31
2	87631	440	30
2	92907	460	37
2	98142	480	38
2	103463	500	33
2	108776	520	39
2	114117	540	35
2	119379	560	32
2	124688	580	38
2	130036	600	38
2	135322	620	31
2	140642	640	41
2	145979	660	35
2	151365	680	38
2	156783	700	38
2	162151	720	35
2	167519	740	39
2	172874	760	36
2	178244	780	36
2	183612	800	32
2	188884	820	29
2	194237	840	41
2	199637	860	30
2	204984	880	34
2	210225	900	37
2	215544	920	33
2	220785	940	36
2	226128	960	27
2	231463	980	32
2	236725	1000	41
2	242003	1020	31
2	247358	1040	38
2	252618	1060	34
2	257860	1080	38
2	263156	1100	32
2	268408	1120	38
2	273669	1140	36
2	279023	1160	37
2	284346	1180	41
2	289701	1200	39
2	295054	1220	40
2	300379	1240	38
2	305700	1260	32
2	311037	1280	38
2	316354	1300	35
2	321708	1320	37
2	327015	1340	34
2	332320	1360	35
2	337615	1380	36
2	343031	1400	38
2	348371	1420	35
2	353793	1440	38
2	359089	1460	31
2	364331	1480	36
2	369522	1500	40
2	374899	1520	36
2	380272	1540	37
2	385649	1560	32
2	391020	1580	38
2	396369	1600	38
2	401619	1620	37
2	406857	1640	33
2	412267	1660	41
2	417486	1680	38
2	422918	1700	32
2	428387	1720	39
2	433735	1740	35
2	439098	1760	41
2	444484	1780	38
2	449681	1800	32
2	454567	1820	35
2	458798	1840	27
2	462660	1860	25
2	465959	1880	22
2	468888	1900	20
2	471342	1920	17
2	473314	1940	15
2	474811	1960	14
2	475840	1980	11
2	476440	2000	5
3	34621	240	0
3	39868	260	0
3	45203	280	1
3	50505	300	1
3	55861	320	1
3	61151	340	1
3	66372	360	1
3	71611	380	2
3	76983	400	0
3	82284	420	0
3	87631	440	2
3	92907	460	0
3	98142	480	0
3	103463	500	2
3	108776	520	1
3	114117	540	0
3	119379	560	2
3	124688	580	1
3	130036	600	0
3	135322	620	2
3	140642	640	0
3	145979	660	2
3	151365	680	0
3	156783	700	0
3	162151	720	0
3	167519	740	0
3	172874	760	0
3	178244	780	0
3	183612	800	2
3	188884	820	0
3	194237	840	1
3	199637	860	0
3	204984	880	3
3	210225	900	0
3	215544	920	0
3	220785	940	3
3	226128	960	2
3	231463	980	0
3	236725	1000	2
3	242003	1020	1
3	247358	1040	0
3	252618	1060	2
3	257860	1080	0
3	263156	1100	1
3	268408	1120	2
3	273669	1140	1
3	279023	1160	0
3	284346	1180	1
3	289701	1200	2
3	295054	1220	0
3	300379	1240	0
3	305700	1260	0
3	311037	1280	1
3	316354	1300	0
3	321708	1320	1
3	327015	1340	0
3	332320	1360	0
3	337615	1380	4
3	343031	1400	1
3	348371	1420	1
3	353793	1440	0
3	359089	1460	0
3	364331	1480	2
3	369522	1500	1
3	374899	1520	0
3	380272	1540	1
3	385649	1560	1
3	391020	1580	1
3	396369	1600	1
3	401619	1620	0
3	406857	1640	0
3	412267	1660	0
3	417486	1680	1
3	422918	1700	1
3	428387	1720	0
3	433735	1740	0
3	439098	1760	0
3	444484	1780	0
3	449681	1800	2
3	454567	1820	1
3	458798	1840	0
3	462660	1860	0
3	465959	1880	0
3	468888	1900	0
3	471342	1920	0
3	473314	1940	0
3	474811	1960	0
3	475840	1980	0
3	476440	2000	0
4	34621	240	nan
4	39868	260	1.5
4	45203	280	1
4	50505	300	1.5
4	55861	320	1
4	61151	340	1
4	66372	360	1
4	71611	380	1.25
4	76983	400	2
4	82284	420	1.25
4	87631	440	1.5
4	92907	460	2
4	98142	480	1
4	103463	500	1.3333333333333
4	108776	520	1
4	114117	540	1.5
4	119379	560	1.6666666666667
4	124688	580	1
4	130036	600	1
4	135322	620	1.5
4	140642	640	nan
4	145979	660	1.5
4	151365	680	1
4	156783	700	1
4	162151	720	1
4	167519	740	1
4	172874	760	1
4	178244	780	1
4	183612	800	1.6666666666667
4	188884	820	1.4
4	194237	840	nan
4	199637	860	1.2
4	204984	880	1.3333333333333
4	210225	900	2
4	215544	920	1.6666666666667
4	220785	940	1
4	226128	960	1.3333333333333
4	231463	980	1.3333333333333
4	236725	1000	nan
4	242003	1020	1.25
4	247358	1040	1
4	252618	1060	1.6666666666667
4	257860	1080	1
4	263156	1100	2
4	268408	1120	1
4	273669	1140	1.5
4	279023	1160	1
4	284346	1180	nan
4	289701	1200	1
4	295054	1220	nan
4	300379	1240	1
4	305700	1260	2
4	311037	1280	1
4	316354	1300	1.5
4	321708	1320	1
4	327015	1340	1.5
4	332320	1360	1.5
4	337615	1380	1.5
4	343031	1400	1
4	348371	1420	1
4	353793	1440	2
4	359089	1460	2
4	364331	1480	2
4	369522	1500	nan
4	374899	1520	1
4	380272	1540	1
4	385649	1560	1
4	391020	1580	1
4	396369	1600	1
4	401619	1620	1
4	406857	1640	1.3333333333333
4	412267	1660	nan
4	417486	1680	1
4	422918	1700	1.6666666666667
4	428387	1720	1
4	433735	1740	1.5
4	439098	1760	nan
4	444484	1780	2
4	449681	1800	1.3333333333333
4	454567	1820	1
4	458798	1840	1
4	462660	1860	1
4	465959	1880	1.5
4	468888	1900	1
4	471342	1920	2
4	473314	1940	1
4	474811	1960	nan
4	475840	1980	nan
4	476440	2000	2
5	34621	240	nan
5	39868	260	0.70710678118655
5	45203	280	nan
5	50505	300	0.70710678118655
5	55861	320	0
5	61151	340	0
5	66372	360	0
5	71611	380	0.5
5	76983	400	0
5	82284	420	0.5
5	87631	440	0.57735026918963
5	92907	460	nan
5	98142	480	nan
5	103463	500	0.57735026918963
5	108776	520	nan
5	114117	540	0.70710678118655
5	119379	560	0.57735026918963
5	124688	580	nan
5	130036	600	nan
5	135322	620	0.57735026918963
5	140642	640	nan
5	145979	660	0.70710678118655
5	151365	680	nan
5	156783	700	nan
5	162151	720	0
5	167519	740	nan
5	172874	760	0
5	178244	780	0
5	183612	800	0.57735026918963
5	188884	820	0.54772255750517
5	194237	840	nan
5	199637	860	0.44721359549996
5	204984	880	0.57735026918963
5	210225	900	nan
5	215544	920	0.57735026918963
5	220785	940	0
5	226128	960	0.51639777949432
5	231463	980	0.57735026918963
5	236725	1000	nan
5	242003	1020	0.5
5	247358	1040	nan
5	252618	1060	0.57735026918963
5	257860	1080	nan
5	263156	1100	0
5	268408	1120	nan
5	273669	1140	0.70710678118655
5	279023	1160	0
5	284346	1180	nan
5	289701	1200	nan
5	295054	1220	nan
5	300379	1240	nan
5	305700	1260	0
5	311037	1280	nan
5	316354	1300	0.70710678118655
5	321708	1320	nan
5	327015	1340	0.70710678118655
5	332320	1360	0.70710678118655
5	337615	1380	0.70710678118655
5	343031	1400	nan
5	348371	1420	0
5	353793	1440	nan
5	359089	1460	1
5	364331	1480	nan
5	369522	1500	nan
5	374899	1520	0
5	380272	1540	0
5	385649	1560	0
5	391020	1580	nan
5	396369	1600	nan
5	401619	1620	0
5	406857	1640	0.57735026918963
5	412267	1660	nan
5	417486	1680	nan
5	422918	1700	0.57735026918963
5	428387	1720	nan
5	433735	1740	0.70710678118655
5	439098	1760	nan
5	444484	1780	nan
5	449681	1800	0.57735026918963
5	454567	1820	nan
5	458798	1840	0
5	462660	1860	0
5	465959	1880	0.70710678118655
5	468888	1900	0
5	471342	1920	nan
5	473314	1940	nan
5	474811	1960	nan
5	475840	1980	nan
5	476440	2000	nan
6	34621	240	nan
6	39868	260	0.5
6	45203	280	nan
6	50505	300	0.5
6	55861	320	0
6	61151	340	0
6	66372	360	0
6	71611	380	0.25
6	76983	400	0
6	82284	420	0.25
6	87631	440	0.33333333333333
6	92907	460	nan
6	98142	480	nan
6	103463	500	0.33333333333333
6	108776	520	nan
6	114117	540	0.5
6	119379	560	0.33333333333333
6	124688	580	nan
6	130036	600	nan
6	135322	620	0.33333333333333
6	140642	640	nan
6	145979	660	0.5
6	151365	680	nan
6	156783	700	nan
6	162151	720	0
6	167519	740	nan
6	172874	760	0
6	178244	780	0
6	183612	800	0.33333333333333
6	188884	820	0.3
6	194237	840	nan
6	199637	860	0.2
6	204984	880	0.33333333333333
6	210225	900	nan
6	215544	920	0.33333333333333
6	220785	940	0
6	226128	960	0.26666666666667
6	231463	980	0.33333333333333
6	236725	1000	nan
6	242003	1020	0.25
6	247358	1040	nan
6	252618	1060	0.33333333333333
6	257860	1080	nan
6	263156	1100	0
6	268408	1120	nan
6	273669	1140	0.5
6	279023	1160	0
6	284346	1180	nan
6	289701	1200	nan
6	295054	1220	nan
6	300379	1240	nan
6	305700	1260	0
6	311037	1280	nan
6	316354	1300	0.5
6	321708	1320	nan
6	327015	1340	0.5
6	332320	1360	0.5
6	337615	1380	0.5
6	343031	1400	nan
6	348371	1420	0
6	353793	1440	nan
6	359089	1460	1
6	364331	1480	nan
6	369522	1500	nan
6	374899	1520	0
6	380272	1540	0
6	385649	1560	0
6	391020	1580	nan
6	396369	1600	nan
6	401619	1620	0
6	406857	1640	0.33333333333333
6	412267	1660	nan
6	417486	1680	nan
6	422918	1700	0.33333333333333
6	428387	1720	nan
6	433735	1740	0.5
6	439098	1760	nan
6	444484	1780	nan
6	449681	1800	0.33333333333333
6	454567	1820	nan
6	458798	1840	0
6	462660	1860	0
6	465959	1880	0.5
6	468888	1900	0
6	471342	1920	nan
6	473314	1940	nan
6	474811	1960	nan
6	475840	1980	nan
6	476440	2000	nan
7	34621	240	8.9
7	39868	260	8.9230769230769
7	45203	280	8.925
7	50505	300	8.8292682926829
7	55861	320	8.925
7	61151	340	9.2
7	66372	360	9.025641025641
7	71611	380	8.7560975609756
7	76983	400	8.7073170731707
7	82284	420	9
7	87631	440	9.05
7	92907	460	9.2820512820513
7	98142	480	8.9
7	103463	500	8.95
7	108776	520	9
7	114117	540	9.05
7	119379	560	8.9
7	124688	580	8.9
7	130036	600	9.025
7	135322	620	8.8292682926829
7	140642	640	9.05
7	145979	660	8.95
7	151365	680	9.125
7	156783	700	9.1
7	162151	720	8.8780487804878
7	167519	740	9.125
7	172874	760	9.05
7	178244	780	9.125
7	183612	800	8.95
7	188884	820	8.9512195121951
7	194237	840	9.3
7	199637	860	9.0975609756098
7	204984	880	9.1
7	210225	900	8.974358974359
7	215544	920	8.9024390243902
7	220785	940	9
7	226128	960	8.9756097560976
7	231463	980	9.2820512820513
7	236725	1000	8.8536585365854
7	242003	1020	8.975
7	247358	1040	9.0769230769231
7	252618	1060	8.8333333333333
7	257860	1080	9.025
7	263156	1100	8.8536585365854
7	268408	1120	8.85
7	273669	1140	8.5609756097561
7	279023	1160	9.2
7	284346	1180	9
7	289701	1200	8.9512195121951
7	295054	1220	9.4615384615385
7	300379	1240	8.9
7	305700	1260	8.8536585365854
7	311037	1280	8.875
7	316354	1300	9.1282051282051
7	321708	1320	9
7	327015	1340	9.0263157894737
7	332320	1360	8.575
7	337615	1380	9.125
7	343031	1400	9.075
7	348371	1420	8.8536585365854
7	353793	1440	9.0487804878049
7	359089	1460	8.975
7	364331	1480	9
7	369522	1500	8.875
7	374899	1520	8.9024390243902
7	380272	1540	9.3
7	385649	1560	9.4615384615385
7	391020	1580	9.2820512820513
7	396369	1600	8.85
7	401619	1620	9.0975609756098
7	406857	1640	8.85
7	412267	1660	9.05
7	417486	1680	8.975
7	422918	1700	9.175
7	428387	1720	8.9024390243902
7	433735	1740	9.15
7	439098	1760	9
7	444484	1780	9.2
7	449681	1800	9.0512820512821
7	454567	1820	8.8918918918919
7	458798	1840	8.4848484848485
7	462660	1860	8.4193548387097
7	465959	1880	8.3333333333333
7	468888	1900	8.125
7	471342	1920	8.35
7	473314	1940	7.6470588235294
7	474811	1960	7.2142857142857
7	475840	1980	6.3636363636364
7	476440	2000	5.25
8	34621	240	1.9054577483558
8	39868	260	1.3255508365366
8	45203	280	1.8863545089228
8	50505	300	1.8960806816218
8	55861	320	1.8998987827291
8	61151	340	1.6044809049531
8	66372	360	1.6934421421469
8	71611	380	1.6245074300365
8	76983	400	1.9005775758835
8	82284	420	1.7541160386141
8	87631	440	2.0872015370851
8	92907	460	1.6535244328199
8	98142	480	1.7066987176478
8	103463	500	2.062485431184
8	108776	520	2.0254787341673
8	114117	540	1.7679482531005
8	119379	560	1.7657714229052
8	124688	580	1.3165611772088
8	130036	600	1.7019973183865
8	135322	620	1.6718618218081
8	140642	640	1.6004806970215
8	145979	660	1.9993588715976
8	151365	680	1.620185174602
8	156783	700	1.3737465148926
8	162151	720	1.503248514904
8	167519	740	1.4355826120072
8	172874	760	1.6322078801741
8	178244	780	1.2442173938171
8	183612	800	1.6164221332376
8	188884	820	1.6874717703149
8	194237	840	1.6361305195256
8	199637	860	1.7436295198347
8	204984	880	1.8508487311612
8	210225	900	2.0836099681383
8	215544	920	1.7436295198347
8	220785	940	1.7246329970052
8	226128	960	2.0431324587267
8	231463	980	1.3755136447068
8	236725	1000	1.5582197471755
8	242003	1020	1.6090688500193
8	247358	1040	1.8120156759026
8	252618	1060	2.1174843180998
8	257860	1080	1.3679012559954
8	263156	1100	2.1972821349312
8	268408	1120	1.6259119728908
8	273669	1140	2.0621442782672
8	279023	1160	1.7859853274155
8	284346	1180	1.6881943016134
8	289701	1200	2.1441923830687
8	295054	1220	1.6834512458536
8	300379	1240	1.8783517051407
8	305700	1260	1.7686290680886
8	311037	1280	1.6359346109433
8	316354	1300	1.2392588442819
8	321708	1320	1.45095250022
8	327015	1340	1.6682543409895
8	332320	1360	1.8931387585104
8	337615	1380	1.9106650741669
8	343031	1400	1.4212219372328
8	348371	1420	1.7257024020635
8	353793	1440	1.8567608827229
8	359089	1460	1.5768761719103
8	364331	1480	1.8778487131486
8	369522	1500	1.7274184087749
8	374899	1520	1.6248827349809
8	380272	1540	1.8144717391868
8	385649	1560	1.5868896065832
8	391020	1580	1.7762870493002
8	396369	1600	1.5114944209673
8	401619	1620	1.6704023175388
8	406857	1640	2.3593784492249
8	412267	1660	1.3765434228065
8	417486	1680	1.6868647902286
8	422918	1700	1.3938969538487
8	428387	1720	2.0100357963079
8	433735	1740	1.9020906177017
8	439098	1760	1.7097008285302
8	444484	1780	1.924204797459
8	449681	1800	1.5380903735805
8	454567	1820	1.3901195748684
8	458798	1840	1.7161223026276
8	462660	1860	1.4781563640424
8	465959	1880	1.8605210188381
8	468888	1900	2.0067819794496
8	471342	1920	2.0332758116684
8	473314	1940	1.6560939160638
8	474811	1960	1.423893439648
8	475840	1980	1.0269106361049
8	476440	2000	1.1649647450214
9	34621	240	3.6307692307692
9	39868	260	1.7570850202429
9	45203	280	3.5583333333333
9	50505	300	3.5951219512195
9	55861	320	3.6096153846154
9	61151	340	2.574358974359
9	66372	360	2.8677462887989
9	71611	380	2.6390243902439
9	76983	400	3.6121951219512
9	82284	420	3.0769230769231
9	87631	440	4.3564102564103
9	92907	460	2.7341430499325
9	98142	480	2.9128205128205
9	103463	500	4.2538461538462
9	108776	520	4.1025641025641
9	114117	540	3.125641025641
9	119379	560	3.1179487179487
9	124688	580	1.7333333333333
9	130036	600	2.8967948717949
9	135322	620	2.7951219512195
9	140642	640	2.5615384615385
9	145979	660	3.9974358974359
9	151365	680	2.625
9	156783	700	1.8871794871795
9	162151	720	2.259756097561
9	167519	740	2.0608974358974
9	172874	760	2.6641025641026
9	178244	780	1.5480769230769
9	183612	800	2.6128205128205
9	188884	820	2.8475609756098
9	194237	840	2.6769230769231
9	199637	860	3.040243902439
9	204984	880	3.425641025641
9	210225	900	4.3414304993252
9	215544	920	3.040243902439
9	220785	940	2.974358974359
9	226128	960	4.1743902439024
9	231463	980	1.8920377867746
9	236725	1000	2.4280487804878
9	242003	1020	2.5891025641026
9	247358	1040	3.2834008097166
9	252618	1060	4.4837398373984
9	257860	1080	1.8711538461538
9	263156	1100	4.8280487804878
9	268408	1120	2.6435897435897
9	273669	1140	4.2524390243902
9	279023	1160	3.1897435897436
9	284346	1180	2.85
9	289701	1200	4.5975609756098
9	295054	1220	2.834008097166
9	300379	1240	3.5282051282051
9	305700	1260	3.1280487804878
9	311037	1280	2.6762820512821
9	316354	1300	1.5357624831309
9	321708	1320	2.1052631578947
9	327015	1340	2.7830725462304
9	332320	1360	3.5839743589744
9	337615	1380	3.650641025641
9	343031	1400	2.0198717948718
9	348371	1420	2.9780487804878
9	353793	1440	3.4475609756098
9	359089	1460	2.4865384615385
9	364331	1480	3.5263157894737
9	369522	1500	2.9839743589744
9	374899	1520	2.640243902439
9	380272	1540	3.2923076923077
9	385649	1560	2.5182186234818
9	391020	1580	3.1551956815115
9	396369	1600	2.2846153846154
9	401619	1620	2.790243902439
9	406857	1640	5.5666666666667
9	412267	1660	1.8948717948718
9	417486	1680	2.8455128205128
9	422918	1700	1.9429487179487
9	428387	1720	4.040243902439
9	433735	1740	3.6179487179487
9	439098	1760	2.9230769230769
9	444484	1780	3.7025641025641
9	449681	1800	2.3657219973009
9	454567	1820	1.9324324324324
9	458798	1840	2.9450757575758
9	462660	1860	2.1849462365591
9	465959	1880	3.4615384615385
9	468888	1900	4.0271739130435
9	471342	1920	4.1342105263158
9	473314	1940	2.7426470588235
9	474811	1960	2.0274725274725
9	475840	1980	1.0545454545455
9	476440	2000	1.3571428571429
10	34621	240	0
10	39868	260	91.056383659719
10	45203	280	50.223796857336
10	50505	300	99.788028115683
10	55861	320	104.68509020148
10	61151	340	189.89746491758
10	66372	360	183.21688060119
10	71611	380	188.78416736635
10	76983	400	97.58705952195
10	82284	420	188.16479267762
10	87631	440	186.1708682783
10	92907	460	48.204737767724
10	98142	480	46.409428477926
10	103463	500	139.59838051037
10	108776	520	45.575097698558
10	114117	540	97.78136288789
10	119379	560	137.37085163519
10	124688	580	47.502559629521
10	130036	600	46.493686214021
10	135322	620	183.605793298
10	140642	640	0
10	145979	660	92.271623619303
10	151365	680	48.176164365282
10	156783	700	46.085852189199
10	162151	720	138.96754096651
10	167519	740	49.773865069819
10	172874	760	90.637943259979
10	178244	780	90.333325422901
10	183612	800	143.1138505259
10	188884	820	236.73023888408
10	194237	840	0
10	199637	860	246.39857554274
10	204984	880	140.01328233634
10	210225	900	47.813957545538
10	215544	920	141.84608818617
10	220785	940	95.386732230879
10	226128	960	284.62569902438
10	231463	980	142.37828378924
10	236725	1000	0
10	242003	1020	186.38900480209
10	247358	1040	45.98608906743
10	252618	1060	140.19647698921
10	257860	1080	47.491745127115
10	263156	1100	140.42572402774
10	268408	1120	46.399175004954
10	273669	1140	92.494371072838
10	279023	1160	97.135339405971
10	284346	1180	0
10	289701	1200	44.719789821542
10	295054	1220	0
10	300379	1240	46.792468860682
10	305700	1260	142.2815800053
10	311037	1280	46.822686568863
10	316354	1300	93.495694920375
10	321708	1320	44.882636153458
10	327015	1340	95.897339972915
10	332320	1360	97.210499030375
10	337615	1380	97.159208613104
10	343031	1400	45.525591921063
10	348371	1420	141.99223771175
10	353793	1440	46.921911879251
10	359089	1460	144.82653786667
10	364331	1480	45.561668549065
10	369522	1500	0
10	374899	1520	146.24742363505
10	380272	1540	100.32551048856
10	385649	1560	196.6172955927
10	391020	1580	45.770765439526
10	396369	1600	48.576092482147
10	401619	1620	97.594576714901
10	406857	1640	140.55017093615
10	412267	1660	0
10	417486	1680	51.286205368277
10	422918	1700	141.98572715522
10	428387	1720	46.840234871735
10	433735	1740	92.897330104344
10	439098	1760	0
10	444484	1780	47.270495817334
10	449681	1800	142.73007994107
10	454567	1820	40.666922054744
10	458798	1840	138.46419735131
10	462660	1860	137.25555080233
10	465959	1880	90.164226489561
10	468888	1900	89.75483375638
10	471342	1920	46.134606628727
10	473314	1940	44.478041632523
10	474811	1960	0
10	475840	1980	0
10	476440	2000	48.930676750475
11	34621	240	nan
11	39868	260	45.52819182986
11	45203	280	50.223796857336
11	50505	300	49.894014057841
11	55861	320	52.342545100739
11	61151	340	47.474366229396
11	66372	360	45.804220150298
11	71611	380	47.196041841588
11	76983	400	48.793529760975
11	82284	420	47.041198169405
11	87631	440	46.542717069575
11	92907	460	48.204737767724
11	98142	480	46.409428477926
11	103463	500	46.532793503457
11	108776	520	45.575097698558
11	114117	540	48.890681443945
11	119379	560	45.790283878398
11	124688	580	47.502559629521
11	130036	600	46.493686214021
11	135322	620	45.901448324501
11	140642	640	nan
11	145979	660	46.135811809651
11	151365	680	48.176164365282
11	156783	700	46.085852189199
11	162151	720	46.322513655503
11	167519	740	49.773865069819
11	172874	760	45.318971629989
11	178244	780	45.16666271145
11	183612	800	47.704616841966
11	188884	820	47.346047776816
11	194237	840	nan
11	199637	860	49.279715108548
11	204984	880	46.671094112113
11	210225	900	47.813957545538
11	215544	920	47.282029395389
11	220785	940	47.69336611544
11	226128	960	47.437616504063
11	231463	980	47.459427929747
11	236725	1000	nan
11	242003	1020	46.597251200523
11	247358	1040	45.98608906743
11	252618	1060	46.732158996403
11	257860	1080	47.491745127115
11	263156	1100	46.808574675915
11	268408	1120	46.399175004954
11	273669	1140	46.247185536419
11	279023	1160	48.567669702985
11	284346	1180	nan
11	289701	1200	44.719789821542
11	295054	1220	nan
11	300379	1240	46.792468860682
11	305700	1260	47.4271933351
11	311037	1280	46.822686568863
11	316354	1300	46.747847460188
11	321708	1320	44.882636153458
11	327015	1340	47.948669986458
11	332320	1360	48.605249515187
11	337615	1380	48.579604306552
11	343031	1400	45.525591921063
11	348371	1420	47.330745903916
11	353793	1440	46.921911879251
11	359089	1460	48.275512622224
11	364331	1480	45.561668549065
11	369522	1500	nan
11	374899	1520	48.749141211682
11	380272	1540	50.162755244278
11	385649	1560	49.154323898176
11	391020	1580	45.770765439526
11	396369	1600	48.576092482147
11	401619	1620	48.79728835745
11	406857	1640	46.850056978716
11	412267	1660	nan
11	417486	1680	51.286205368277
11	422918	1700	47.328575718407
11	428387	1720	46.840234871735
11	433735	1740	46.448665052172
11	439098	1760	nan
11	444484	1780	47.270495817334
11	449681	1800	47.576693313692
11	454567	1820	40.666922054744
11	458798	1840	46.154732450435
11	462660	1860	45.751850267444
11	465959	1880	45.08211324478
11	468888	1900	44.87741687819
11	471342	1920	46.134606628727
11	473314	1940	44.478041632523
11	474811	1960	nan
11	475840	1980	nan
11	476440	2000	48.930676750475
12	34621	240	nan
12	39868	260	0.56836974743311
12	45203	280	nan
12	50505	300	5.8859765735792
12	55861	320	1.1918559137838
12	61151	340	2.4055264492043
12	66372	360	0.87206449900771
12	71611	380	1.2998883517815
12	76983	400	2.2375378651117
12	82284	420	0.83985106433665
12	87631	440	0.96479354361785
12	92907	460	nan
12	98142	480	nan
12	103463	500	1.8046628919073
12	108776	520	nan
12	114117	540	5.4418802127003
12	119379	560	0.71529324265866
12	124688	580	nan
12	130036	600	nan
12	135322	620	0.80221664382654
12	140642	640	nan
12	145979	660	0.71251069240608
12	151365	680	nan
12	156783	700	nan
12	162151	720	0.11722555024959
12	167519	740	nan
12	172874	760	0.36559705778423
12	178244	780	0.14739304834276
12	183612	800	1.8280819226541
12	188884	820	1.0600810576546
12	194237	840	nan
12	199637	860	0.77308730994175
12	204984	880	0.83849458159716
12	210225	900	nan
12	215544	920	1.7929123951207
12	220785	940	2.3353124017552
12	226128	960	1.5316921377754
12	231463	980	2.2167068738064
12	236725	1000	nan
12	242003	1020	1.5060010782101
12	247358	1040	nan
12	252618	1060	0.74573049108818
12	257860	1080	nan
12	263156	1100	2.840850252174
12	268408	1120	nan
12	273669	1140	0.17245405114618
12	279023	1160	4.0765072839395
12	284346	1180	nan
12	289701	1200	nan
12	295054	1220	nan
12	300379	1240	nan
12	305700	1260	1.8236018742449
12	311037	1280	nan
12	316354	1300	1.0876839826932
12	321708	1320	nan
12	327015	1340	0.75089880816992
12	332320	1360	0.66947717423732
12	337615	1380	0.63422895889469
12	343031	1400	nan
12	348371	1420	3.0423280509508
12	353793	1440	nan
12	359089	1460	0.91458587315087
12	364331	1480	nan
12	369522	1500	nan
12	374899	1520	1.0368864585947
12	380272	1540	8.5869093472011
12	385649	1560	4.4762284811305
12	391020	1580	nan
12	396369	1600	nan
12	401619	1620	2.9056496486628
12	406857	1640	0.44448087445682
12	412267	1660	nan
12	417486	1680	nan
12	422918	1700	0.90602198901017
12	428387	1720	nan
12	433735	1740	1.7581699343083
12	439098	1760	nan
12	444484	1780	nan
12	449681	1800	2.6021096361725
12	454567	1820	nan
12	458798	1840	0.9873026984478
12	462660	1860	1.2858509038166
12	465959	1880	0.046485035326592
12	468888	1900	0.92820776651272
12	471342	1920	nan
12	473314	1940	nan
12	474811	1960	nan
12	475840	1980	nan
12	476440	2000	nan
13	34621	240	nan
13	39868	260	0.32304416979718
13	45203	280	nan
13	50505	300	34.644720224723
13	55861	320	1.4205205192215
13	61151	340	5.7865574978217
13	66372	360	0.76049649042958
13	71611	380	1.6897097270973
13	76983	400	5.0065756978088
13	82284	420	0.7053498102674
13	87631	440	0.93082658180668
13	92907	460	nan
13	98142	480	nan
13	103463	500	3.2568081534274
13	108776	520	nan
13	114117	540	29.614060249379
13	119379	560	0.51164442299314
13	124688	580	nan
13	130036	600	nan
13	135322	620	0.64355154363232
13	140642	640	nan
13	145979	660	0.50767148679299
13	151365	680	nan
13	156783	700	nan
13	162151	720	0.01374182963132
13	167519	740	nan
13	172874	760	0.13366120866048
13	178244	780	0.02172471069977
13	183612	800	3.3418835159349
13	188884	820	1.1237718487981
13	194237	840	nan
13	199637	860	0.59766398879297
13	204984	880	0.70307316336779
13	210225	900	nan
13	215544	920	3.2145348565776
13	220785	940	5.4536840137916
13	226128	960	2.3460808049231
13	231463	980	4.9137893643806
13	236725	1000	nan
13	242003	1020	2.2680392475699
13	247358	1040	nan
13	252618	1060	0.55611396533862
13	257860	1080	nan
13	263156	1100	8.0704301552768
13	268408	1120	nan
13	273669	1140	0.029740399756729
13	279023	1160	16.617911636012
13	284346	1180	nan
13	289701	1200	nan
13	295054	1220	nan
13	300379	1240	nan
13	305700	1260	3.3255237957493
13	311037	1280	nan
13	316354	1300	1.1830564462073
13	321708	1320	nan
13	327015	1340	0.56384902011101
13	332320	1360	0.44819968682479
13	337615	1380	0.40224637230064
13	343031	1400	nan
13	348371	1420	9.2557599696022
13	353793	1440	nan
13	359089	1460	0.83646731936714
13	364331	1480	nan
13	369522	1500	nan
13	374899	1520	1.0751335280171
13	380272	1540	73.73501213705
13	385649	1560	20.036621415284
13	391020	1580	nan
13	396369	1600	nan
13	401619	1620	8.4427998807743
13	406857	1640	0.1975632477579
13	412267	1660	nan
13	417486	1680	nan
13	422918	1700	0.82087584456995
13	428387	1720	nan
13	433735	1740	3.0911615179055
13	439098	1760	nan
13	444484	1780	nan
13	449681	1800	6.7709745586616
13	454567	1820	nan
13	458798	1840	0.9747666183623
13	462660	1860	1.653412546846
13	465959	1880	0.0021608585093145
13	468888	1900	0.86156965781452
13	471342	1920	nan
13	473314	1940	nan
13	474811	1960	nan
13	475840	1980	nan
13	476440	2000	nan
14	34621	240	0
14	39868	260	89.373661640666
14	45203	280	91.432346704235
14	50505	300	135.23762940432
14	55861	320	141.40661526534