version 2
run statisticRVV-192-20150327-14:28:41-17448
attr c 8
attr configname statisticRVV
attr datetime 20150327-14:28:41
attr experiment statisticRVV
attr inifile omnetpp.ini
attr iterationvars "$sc=\"erlangen-medium.launchd.xml\", $p=1/8, $c=8"
attr iterationvars2 "$sc=\"erlangen-medium.launchd.xml\", $p=1/8, $c=8, $repetition=2"
attr measurement "$sc=\"erlangen-medium.launchd.xml\", $p=1/8, $c=8"
attr network RSUExampleScenario
attr p 1/8
attr processid 17448
attr repetition 2
attr replication #2
attr resultdir results
attr runnumber 192
attr sc "\"erlangen-medium.launchd.xml\""
attr seedset 192

vector 0  RSUExampleScenario.rsu[0].appl  Number_CH  ETV
vector 1  RSUExampleScenario.rsu[0].appl  Number_ON  ETV
vector 2  RSUExampleScenario.rsu[0].appl  Number_FN  ETV
vector 3  RSUExampleScenario.rsu[0].appl  Number_CH_Losts  ETV
vector 4  RSUExampleScenario.rsu[0].appl  Number_CH_Losts  ETV
vector 5  RSUExampleScenario.rsu[0].appl  Mean_Cluster_Size  ETV
vector 6  RSUExampleScenario.rsu[0].appl  StdDev_Cluster_Size  ETV
vector 7  RSUExampleScenario.rsu[0].appl  Variance_Cluster_Size  ETV
vector 8  RSUExampleScenario.rsu[0].appl  Mean_Neighbors  ETV
vector 9  RSUExampleScenario.rsu[0].appl  StdDev_Neighbors  ETV
vector 10  RSUExampleScenario.rsu[0].appl  Variance_Neighbors  ETV
vector 11  RSUExampleScenario.rsu[0].appl  Total_CH_Utility  ETV
vector 12  RSUExampleScenario.rsu[0].appl  Mean_CH_Utility  ETV
vector 13  RSUExampleScenario.rsu[0].appl  StdDev_CH_Utility  ETV
vector 14  RSUExampleScenario.rsu[0].appl  Variance_CH_Utility  ETV
vector 15  RSUExampleScenario.rsu[0].appl  Total_exp_CH_Utility  ETV
vector 16  RSUExampleScenario.rsu[0].appl  Mean_exp_CH_Utility  ETV
vector 17  RSUExampleScenario.rsu[0].appl  StdDev_exp_CH_Utility  ETV
vector 18  RSUExampleScenario.rsu[0].appl  Variance_exp_CH_Utility  ETV
vector 19  RSUExampleScenario.rsu[0].appl  Total_ON_Utility  ETV
vector 20  RSUExampleScenario.rsu[0].appl  Mean_ON_Utility  ETV
vector 21  RSUExampleScenario.rsu[0].appl  StdDev_ON_Utility  ETV
vector 22  RSUExampleScenario.rsu[0].appl  Variance_ON_Utility  ETV
vector 23  RSUExampleScenario.rsu[0].appl  Total_exp_ON_Utility  ETV
vector 24  RSUExampleScenario.rsu[0].appl  Mean_exp_ON_Utility  ETV
vector 25  RSUExampleScenario.rsu[0].appl  StdDev_exp_ON_Utility  ETV
vector 26  RSUExampleScenario.rsu[0].appl  Variance_exp_ON_Utility  ETV
0	145499	240	9
0	171314	260	12
0	198378	280	13
0	225590	300	16
0	252761	320	13
0	279923	340	13
0	307933	360	12
0	336326	380	8
0	365060	400	7
0	393899	420	18
0	423589	440	9
0	453973	460	10
0	484492	480	13
0	515792	500	15
0	547984	520	8
0	581355	540	21
0	615368	560	4
0	649946	580	11
0	685439	600	12
0	722293	620	20
0	760239	640	12
0	799347	660	14
0	839331	680	15
0	880420	700	15
0	922739	720	12
0	966804	740	16
0	1011719	760	14
0	1057947	780	10
0	1105209	800	18
0	1153542	820	20
0	1202909	840	11
0	1253353	860	15
0	1304640	880	18
0	1357696	900	16
0	1411850	920	15
0	1467970	940	23
0	1525103	960	19
0	1583206	980	20
0	1643680	1000	14
0	1705698	1020	15
0	1767832	1040	10
0	1832187	1060	24
0	1898470	1080	18
0	1966959	1100	15
0	2037251	1120	15
0	2108698	1140	19
0	2181863	1160	24
0	2257265	1180	20
0	2334226	1200	15
0	2413554	1220	22
0	2494879	1240	20
0	2578858	1260	19
0	2664655	1280	24
0	2752910	1300	23
0	2842565	1320	17
0	2934285	1340	14
0	3027664	1360	17
0	3122937	1380	22
0	3220451	1400	22
0	3320212	1420	16
0	3422520	1440	16
0	3527135	1460	16
0	3634063	1480	25
0	3743433	1500	22
0	3855586	1520	18
0	3969025	1540	18
0	4085073	1560	14
0	4203434	1580	19
0	4323333	1600	19
0	4445557	1620	25
0	4570817	1640	22
0	4698352	1660	25
1	145499	240	56
1	171314	260	58
1	198378	280	49
1	225590	300	61
1	252761	320	70
1	279923	340	73
1	307933	360	73
1	336326	380	45
1	365060	400	43
1	393899	420	67
1	423589	440	43
1	453973	460	50
1	484492	480	72
1	515792	500	73
1	547984	520	50
1	581355	540	79
1	615368	560	32
1	649946	580	72
1	685439	600	75
1	722293	620	85
1	760239	640	75
1	799347	660	69
1	839331	680	84
1	880420	700	77
1	922739	720	79
1	966804	740	83
1	1011719	760	88
1	1057947	780	64
1	1105209	800	99
1	1153542	820	92
1	1202909	840	78
1	1253353	860	92
1	1304640	880	89
1	1357696	900	95
1	1411850	920	97
1	1467970	940	103
1	1525103	960	102
1	1583206	980	103
1	1643680	1000	97
1	1705698	1020	98
1	1767832	1040	75
1	1832187	1060	98
1	1898470	1080	89
1	1966959	1100	76
1	2037251	1120	85
1	2108698	1140	110
1	2181863	1160	103
1	2257265	1180	115
1	2334226	1200	102
1	2413554	1220	115
1	2494879	1240	99
1	2578858	1260	97
1	2664655	1280	115
1	2752910	1300	115
1	2842565	1320	98
1	2934285	1340	91
1	3027664	1360	104
1	3122937	1380	105
1	3220451	1400	113
1	3320212	1420	105
1	3422520	1440	91
1	3527135	1460	94
1	3634063	1480	124
1	3743433	1500	119
1	3855586	1520	124
1	3969025	1540	109
1	4085073	1560	94
1	4203434	1580	117
1	4323333	1600	115
1	4445557	1620	135
1	4570817	1640	119
1	4698352	1660	123
2	145499	240	14
2	171314	260	15
2	198378	280	30
2	225590	300	16
2	252761	320	13
2	279923	340	9
2	307933	360	9
2	336326	380	44
2	365060	400	48
2	393899	420	12
2	423589	440	48
2	453973	460	41
2	484492	480	16
2	515792	500	16
2	547984	520	46
2	581355	540	6
2	615368	560	72
2	649946	580	26
2	685439	600	23
2	722293	620	7
2	760239	640	27
2	799347	660	31
2	839331	680	15
2	880420	700	23
2	922739	720	26
2	966804	740	21
2	1011719	760	19
2	1057947	780	45
2	1105209	800	7
2	1153542	820	11
2	1202909	840	34
2	1253353	860	19
2	1304640	880	21
2	1357696	900	18
2	1411850	920	17
2	1467970	940	5
2	1525103	960	11
2	1583206	980	9
2	1643680	1000	23
2	1705698	1020	24
2	1767832	1040	52
2	1832187	1060	16
2	1898470	1080	32
2	1966959	1100	50
2	2037251	1120	42
2	2108698	1140	15
2	2181863	1160	17
2	2257265	1180	10
2	2334226	1200	30
2	2413554	1220	11
2	2494879	1240	32
2	2578858	1260	35
2	2664655	1280	12
2	2752910	1300	14
2	2842565	1320	38
2	2934285	1340	50
2	3027664	1360	36
2	3122937	1380	30
2	3220451	1400	23
2	3320212	1420	38
2	3422520	1440	56
2	3527135	1460	52
2	3634063	1480	15
2	3743433	1500	26
2	3855586	1520	27
2	3969025	1540	39
2	4085073	1560	60
2	4203434	1580	34
2	4323333	1600	38
2	4445557	1620	14
2	4570817	1640	33
2	4698352	1660	27
3	145499	240	0
3	171314	260	2
3	198378	280	1
3	225590	300	1
3	252761	320	0
3	279923	340	0
3	307933	360	0
3	336326	380	0
3	365060	400	0
3	393899	420	3
3	423589	440	1
3	453973	460	1
3	484492	480	1
3	515792	500	1
3	547984	520	0
3	581355	540	1
3	615368	560	0
3	649946	580	0
3	685439	600	1
3	722293	620	1
3	760239	640	0
3	799347	660	2
3	839331	680	0
3	880420	700	2
3	922739	720	0
3	966804	740	1
3	1011719	760	0
3	1057947	780	0
3	1105209	800	0
3	1153542	820	0
3	1202909	840	0
3	1253353	860	1
3	1304640	880	0
3	1357696	900	0
3	1411850	920	0
3	1467970	940	1
3	1525103	960	0
3	1583206	980	1
3	1643680	1000	0
3	1705698	1020	0
3	1767832	1040	0
3	1832187	1060	0
3	1898470	1080	0
3	1966959	1100	3
3	2037251	1120	0
3	2108698	1140	1
3	2181863	1160	1
3	2257265	1180	1
3	2334226	1200	0
3	2413554	1220	2
3	2494879	1240	0
3	2578858	1260	0
3	2664655	1280	0
3	2752910	1300	1
3	2842565	1320	0
3	2934285	1340	0
3	3027664	1360	0
3	3122937	1380	0
3	3220451	1400	1
3	3320212	1420	0
3	3422520	1440	2
3	3527135	1460	1
3	3634063	1480	0
3	3743433	1500	0
3	3855586	1520	0
3	3969025	1540	1
3	4085073	1560	0
3	4203434	1580	0
3	4323333	1600	3
3	4445557	1620	2
3	4570817	1640	0
3	4698352	1660	0
4	145499	240	14
4	171314	260	12
4	198378	280	29
4	225590	300	15
4	252761	320	13
4	279923	340	9
4	307933	360	9
4	336326	380	44
4	365060	400	48
4	393899	420	8
4	423589	440	47
4	453973	460	40
4	484492	480	15
4	515792	500	14
4	547984	520	46
4	581355	540	5
4	615368	560	72
4	649946	580	26
4	685439	600	22
4	722293	620	6
4	760239	640	27
4	799347	660	29
4	839331	680	15
4	880420	700	21
4	922739	720	26
4	966804	740	20
4	1011719	760	18
4	1057947	780	45
4	1105209	800	7
4	1153542	820	11
4	1202909	840	33
4	1253353	860	18
4	1304640	880	21
4	1357696	900	18
4	1411850	920	17
4	1467970	940	3
4	1525103	960	11
4	1583206	980	8
4	1643680	1000	22
4	1705698	1020	24
4	1767832	1040	52
4	1832187	1060	16
4	1898470	1080	32
4	1966959	1100	47
4	2037251	1120	41
4	2108698	1140	13
4	2181863	1160	16
4	2257265	1180	9
4	2334226	1200	30
4	2413554	1220	9
4	2494879	1240	31
4	2578858	1260	35
4	2664655	1280	12
4	2752910	1300	13
4	2842565	1320	38
4	2934285	1340	50
4	3027664	1360	36
4	3122937	1380	30
4	3220451	1400	22
4	3320212	1420	38
4	3422520	1440	54
4	3527135	1460	51
4	3634063	1480	14
4	3743433	1500	26
4	3855586	1520	27
4	3969025	1540	38
4	4085073	1560	60
4	4203434	1580	34
4	4323333	1600	35
4	4445557	1620	12
4	4570817	1640	33
4	4698352	1660	26
5	145499	240	6.2222222222222
5	171314	260	4.8333333333333
5	198378	280	3.7692307692308
5	225590	300	3.8125
5	252761	320	5.3846153846154
5	279923	340	5.6153846153846
5	307933	360	6.0833333333333
5	336326	380	5.625
5	365060	400	6.1428571428571
5	393899	420	3.7222222222222
5	423589	440	4.7777777777778
5	453973	460	5
5	484492	480	5.5384615384615
5	515792	500	4.8666666666667
5	547984	520	6.25
5	581355	540	3.7619047619048
5	615368	560	8
5	649946	580	6.5454545454545
5	685439	600	6.25
5	722293	620	4.25
5	760239	640	6.25
5	799347	660	4.9285714285714
5	839331	680	5.6
5	880420	700	5.1333333333333
5	922739	720	6.5833333333333
5	966804	740	5.1875
5	1011719	760	6.2857142857143
5	1057947	780	6.4
5	1105209	800	5.5
5	1153542	820	4.6
5	1202909	840	7.0909090909091
5	1253353	860	6.1333333333333
5	1304640	880	4.9444444444444
5	1357696	900	5.9375
5	1411850	920	6.4666666666667
5	1467970	940	4.4782608695652
5	1525103	960	5.3684210526316
5	1583206	980	5.15
5	1643680	1000	6.9285714285714
5	1705698	1020	6.5333333333333
5	1767832	1040	7.5
5	1832187	1060	4.0833333333333
5	1898470	1080	4.9444444444444
5	1966959	1100	5.0666666666667
5	2037251	1120	5.6666666666667
5	2108698	1140	5.7894736842105
5	2181863	1160	4.2916666666667
5	2257265	1180	5.75
5	2334226	1200	6.8
5	2413554	1220	5.2272727272727
5	2494879	1240	4.95
5	2578858	1260	5.1052631578947
5	2664655	1280	4.7916666666667
5	2752910	1300	5
5	2842565	1320	5.7647058823529
5	2934285	1340	6.5
5	3027664	1360	6.1176470588235
5	3122937	1380	4.7727272727273
5	3220451	1400	5.1363636363636
5	3320212	1420	6.5625
5	3422520	1440	5.6875
5	3527135	1460	5.875
5	3634063	1480	4.96
5	3743433	1500	5.4090909090909
5	3855586	1520	6.8888888888889
5	3969025	1540	6.0555555555556
5	4085073	1560	6.7142857142857
5	4203434	1580	6.1578947368421
5	4323333	1600	6.0526315789474
5	4445557	1620	5.4
5	4570817	1640	5.4090909090909
5	4698352	1660	4.92
6	145499	240	1.2018504251547
6	171314	260	1.8989630344113
6	198378	280	2.2043081361222
6	225590	300	2.1360009363294
6	252761	320	2.6937724952954
6	279923	340	2.180919589625
6	307933	360	1.8809249819913
6	336326	380	2.8252686345094
6	365060	400	2.0354009783964
6	393899	420	2.1910393868599
6	423589	440	2.1081851067789
6	453973	460	2.2607766610418
6	484492	480	2.3669736167867
6	515792	500	2.356349072693
6	547984	520	1.3887301496588
6	581355	540	2.1657507221461
6	615368	560	0
6	649946	580	1.7529196424044
6	685439	600	1.5447859516333
6	722293	620	2.1244194253341
6	760239	640	1.815338686156
6	799347	660	2.1649048909394
6	839331	680	2.1646510771287
6	880420	700	2.5597618936887
6	922739	720	1.564279289951
6	966804	740	1.7969882210707
6	1011719	760	2.0164161440373
6	1057947	780	1.6465452046971
6	1105209	800	1.6538724611188
6	1153542	820	2.2571523745873
6	1202909	840	1.136181803634
6	1253353	860	1.7265434778633
6	1304640	880	2.182071930184
6	1357696	900	1.481834448693
6	1411850	920	1.3020130933436
6	1467970	940	2.2936585546278
6	1525103	960	1.7065405655168
6	1583206	980	2.1588252165911
6	1643680	1000	1.1411388181101
6	1705698	1020	1.3557637102737
6	1767832	1040	0.70710678118655
6	1832187	1060	2.3941353466275
6	1898470	1080	2.0714366206096
6	1966959	1100	2.7115274205475
6	2037251	1120	1.8771812708978
6	2108698	1140	1.7505220608093
6	2181863	1160	2.3494526035296
6	2257265	1180	1.773340588298
6	2334226	1200	1.0823255385643
6	2413554	1220	1.7163587753985
6	2494879	1240	2.0384462607326
6	2578858	1260	2.2334511621182
6	2664655	1280	2.2453655975512
6	2752910	1300	2.3548788812707
6	2842565	1320	2.3326329481057
6	2934285	1340	1.6525039276108
6	3027664	1360	2.0273860307418
6	3122937	1380	1.9006720160391
6	3220451	1400	2.210267265577
6	3320212	1420	1.6720745597411
6	3422520	1440	2.4143667216615
6	3527135	1460	2.125245083906
6	3634063	1480	2.2634781495153
6	3743433	1500	2.0853021000529
6	3855586	1520	1.1826634392157
6	3969025	1540	1.661757475836
6	4085073	1560	1.5406577730393
6	4203434	1580	1.5004872502971
6	4323333	1600	1.6823820483841
6	4445557	1620	1.9148542155127
6	4570817	1640	2.01563155432
6	4698352	1660	1.8466185312619
7	145499	240	1.4444444444444
7	171314	260	3.6060606060606
7	198378	280	4.8589743589744
7	225590	300	4.5625
7	252761	320	7.2564102564103
7	279923	340	4.7564102564103
7	307933	360	3.5378787878788
7	336326	380	7.9821428571429
7	365060	400	4.1428571428571
7	393899	420	4.8006535947712
7	423589	440	4.4444444444444
7	453973	460	5.1111111111111
7	484492	480	5.6025641025641
7	515792	500	5.552380952381
7	547984	520	1.9285714285714
7	581355	540	4.6904761904762
7	615368	560	0
7	649946	580	3.0727272727273
7	685439	600	2.3863636363636
7	722293	620	4.5131578947368
7	760239	640	3.2954545454545
7	799347	660	4.6868131868132
7	839331	680	4.6857142857143
7	880420	700	6.552380952381
7	922739	720	2.4469696969697
7	966804	740	3.2291666666667
7	1011719	760	4.0659340659341
7	1057947	780	2.7111111111111
7	1105209	800	2.7352941176471
7	1153542	820	5.0947368421053
7	1202909	840	1.2909090909091
7	1253353	860	2.9809523809524
7	1304640	880	4.7614379084967
7	1357696	900	2.1958333333333
7	1411850	920	1.6952380952381
7	1467970	940	5.2608695652174
7	1525103	960	2.9122807017544
7	1583206	980	4.6605263157895
7	1643680	1000	1.3021978021978
7	1705698	1020	1.8380952380952
7	1767832	1040	0.5
7	1832187	1060	5.731884057971
7	1898470	1080	4.2908496732026
7	1966959	1100	7.352380952381
7	2037251	1120	3.5238095238095
7	2108698	1140	3.0643274853801
7	2181863	1160	5.5199275362319
7	2257265	1180	3.1447368421053
7	2334226	1200	1.1714285714286
7	2413554	1220	2.9458874458874
7	2494879	1240	4.1552631578947
7	2578858	1260	4.9883040935673
7	2664655	1280	5.0416666666667
7	2752910	1300	5.5454545454545
7	2842565	1320	5.4411764705882
7	2934285	1340	2.7307692307692
7	3027664	1360	4.1102941176471
7	3122937	1380	3.6125541125541
7	3220451	1400	4.8852813852814
7	3320212	1420	2.7958333333333
7	3422520	1440	5.8291666666667
7	3527135	1460	4.5166666666667
7	3634063	1480	5.1233333333333
7	3743433	1500	4.3484848484848
7	3855586	1520	1.3986928104575
7	3969025	1540	2.7614379084967
7	4085073	1560	2.3736263736264
7	4203434	1580	2.2514619883041
7	4323333	1600	2.8304093567251
7	4445557	1620	3.6666666666667
7	4570817	1640	4.0627705627706
7	4698352	1660	3.41
8	145499	240	22.658227848101
8	171314	260	22.833333333333
8	198378	280	22.304347826087
8	225590	300	22.139784946237
8	252761	320	21.979166666667
8	279923	340	22.168421052632
8	307933	360	22.446808510638
8	336326	380	22.010309278351
8	365060	400	22.010204081633
8	393899	420	22.375
8	423589	440	22.24
8	453973	460	22.60396039604
8	484492	480	22.524752475248
8	515792	500	22.592233009709
8	547984	520	23.086538461538
8	581355	540	23.047169811321
8	615368	560	23.333333333333
8	649946	580	23.935779816514
8	685439	600	24.254545454545
8	722293	620	24.508928571429
8	760239	640	25.008771929825
8	799347	660	26.087719298246
8	839331	680	26.771929824561
8	880420	700	26.895652173913
8	922739	720	27.162393162393
8	966804	740	27.583333333333
8	1011719	760	28.333333333333
8	1057947	780	28.470588235294
8	1105209	800	29.016129032258
8	1153542	820	29.333333333333
8	1202909	840	29.696721311475
8	1253353	860	29.666666666667
8	1304640	880	30.2890625
8	1357696	900	30.53488372093
8	1411850	920	31.162790697674
8	1467970	940	31.584615384615
8	1525103	960	31.757575757576
8	1583206	980	31.924242424242
8	1643680	1000	32.87969924812
8	1705698	1020	33.284671532847
8	1767832	1040	33.846715328467
8	1832187	1060	33.913043478261
8	1898470	1080	34.920863309353
8	1966959	1100	35.489361702128
8	2037251	1120	36.375886524823
8	2108698	1140	36.545454545455
8	2181863	1160	37.375
8	2257265	1180	38.144827586207
8	2334226	1200	38.530612244898
8	2413554	1220	39.682432432432
8	2494879	1240	40.473333333333
8	2578858	1260	40.562913907285
8	2664655	1280	41.794701986755
8	2752910	1300	42.25
8	2842565	1320	43.424836601307
8	2934285	1340	43.741935483871
8	3027664	1360	44.43949044586
8	3122937	1380	44.31847133758
8	3220451	1400	45.613924050633
8	3320212	1420	46.289308176101
8	3422520	1440	46.852760736196
8	3527135	1460	48.111111111111
8	3634063	1480	48.355828220859
8	3743433	1500	48.640718562874
8	3855586	1520	49.603550295858
8	3969025	1540	50.44578313253
8	4085073	1560	50.970238095238
8	4203434	1580	51.217647058824
8	4323333	1600	51.31976744186
8	4445557	1620	51.862068965517
8	4570817	1640	52.591954022989
8	4698352	1660	53.465517241379
9	145499	240	4.8619033836063
9	171314	260	3.8521886544819
9	198378	280	4.1077229071693
9	225590	300	4.8355373736928
9	252761	320	4.7968831254574
9	279923	340	4.5186437232232
9	307933	360	4.716972377972
9	336326	380	4.9021569346242
9	365060	400	4.6117172550359
9	393899	420	4.147922752161
9	423589	440	3.9263934668555
9	453973	460	3.6690031559561
9	484492	480	3.3692552868726
9	515792	500	3.119944988215
9	547984	520	2.7768480312753
9	581355	540	3.6888043629383
9	615368	560	3.8910393105041
9	649946	580	3.1747710018257
9	685439	600	3.8704629873501
9	722293	620	4.5480330085768
9	760239	640	4.7587750599726
9	799347	660	4.0757460981755
9	839331	680	5.1181355283997
9	880420	700	5.5997711623725
9	922739	720	6.5165006276603
9	966804	740	7.62303379618
9	1011719	760	7.5763157421064
9	1057947	780	7.0444394821127
9	1105209	800	7.9816699263051
9	1153542	820	8.3584321483244
9	1202909	840	8.0882419958139
9	1253353	860	9.3432328452201
9	1304640	880	9.1884490510949
9	1357696	900	9.5222162201972
9	1411850	920	10.23992698466
9	1467970	940	10.897538741666
9	1525103	960	10.802969066098
9	1583206	980	10.585616924924
9	1643680	1000	11.632007561417
9	1705698	1020	12.682171892017
9	1767832	1040	12.885177594104
9	1832187	1060	13.540681209006
9	1898470	1080	13.45742871633
9	1966959	1100	14.725399350043
9	2037251	1120	15.063455782168
9	2108698	1140	15.207821964754
9	2181863	1160	15.387705109322
9	2257265	1180	16.128812775048
9	2334226	1200	17.512933038049
9	2413554	1220	17.771810270806
9	2494879	1240	18.667596253619
9	2578858	1260	18.726656992619
9	2664655	1280	19.350906225392
9	2752910	1300	20.08895779192
9	2842565	1320	20.78261318179
9	2934285	1340	21.110051372672
9	3027664	1360	21.31098716854
9	3122937	1380	21.862342701949
9	3220451	1400	22.471985300753
9	3320212	1420	22.894459534273
9	3422520	1440	23.617380377839
9	3527135	1460	24.179710194565
9	3634063	1480	24.565277356965
9	3743433	1500	25.270159924565
9	3855586	1520	25.699087193098
9	3969025	1540	25.616402421483
9	4085073	1560	26.086779544605
9	4203434	1580	26.284846924851
9	4323333	1600	26.600071757224
9	4445557	1620	27.061767247571
9	4570817	1640	27.017017623091
9	4698352	1660	27.173313700699
10	145499	240	23.638104511522
10	171314	260	14.839357429719
10	198378	280	16.873387482083
10	225590	300	23.38242169238
10	252761	320	23.010087719298
10	279923	340	20.418141097424
10	307933	360	22.24982841455
10	336326	380	24.031142611684
10	365060	400	21.267936040396
10	393899	420	17.205263157895
10	423589	440	15.416565656566
10	453973	460	13.461584158416
10	484492	480	11.351881188119
10	515792	500	9.7340567294879
10	547984	520	7.7108849887976
10	581355	540	13.607277628032
10	615368	560	15.140186915888
10	649946	580	10.079170914033
10	685439	600	14.980483736447
10	722293	620	20.684604247104
10	760239	640	22.645940071417
10	799347	660	16.611706256792
10	839331	680	26.195311287067
10	880420	700	31.357437070938
10	922739	720	42.464780430298
10	966804	740	58.110644257703
10	1011719	760	57.40056022409
10	1057947	780	49.624127617149
10	1105209	800	63.707054812484
10	1153542	820	69.863387978142
10	1202909	840	65.419658582848
10	1253353	860	87.296
10	1304640	880	84.427595964567
10	1357696	900	90.672601744186
10	1411850	920	104.85610465116
10	1467970	940	118.75635062612
10	1525103	960	116.70414064307
10	1583206	980	112.05528568124
10	1643680	1000	135.30359990886
10	1705698	1020	160.83748389867
10	1767832	1040	166.0278016316
10	1832187	1060	183.35004760394
10	1898470	1080	181.10238765509
10	1966959	1100	216.83738601824
10	2037251	1120	226.90770010132
10	2108698	1140	231.27784891165
10	2181863	1160	236.78146853147
10	2257265	1180	260.13860153257
10	2334226	1200	306.70282359519
10	2413554	1220	315.83724030153
10	2494879	1240	348.47914988814
10	2578858	1260	350.68768211921
10	2664655	1280	374.45757174393
10	2752910	1300	403.56622516556
10	2842565	1320	431.91701066391
10	2934285	1340	445.63426895685
10	3027664	1360	454.15817409766
10	3122937	1380	477.96202841744
10	3220451	1400	504.99012335725
10	3320212	1420	524.15627736645
10	3422520	1440	557.78065591154
10	3527135	1460	584.65838509317
10	3634063	1480	603.45285162463
10	3743433	1500	638.58098261309
10	3855586	1520	660.44308255847
10	3969025	1540	656.20007301935
10	4085073	1560	680.52006700884
10	4203434	1580	690.89317786286
10	4323333	1600	707.56381748946
10	4445557	1620	732.33924656169
10	4570817	1640	729.91924124643
10	4698352	1660	738.38897747658
11	145499	240	422.53163816717
11	171314	260	568.155635287
11	198378	280	617.96241165219
11	225590	300	764.10981666708
11	252761	320	614.34556885393
11	279923	340	606.98346866338
11	307933	360	570.68103863308
11	336326	380	376.63635010921
11	365060	400	327.52130943801
11	393899	420	863.18246413788
11	423589	440	431.39406514045
11	453973	460	471.00963269956
11	484492	480	619.23894263415
11	515792	500	701.0463423939
11	547984	520	381.60717013253
11	581355	540	1007.6708496547
11	615368	560	184.86191122148
11	649946	580	514.5694248513
11	685439	600	570.13149474731
11	722293	620	965.73998540585
11	760239	640	567.5800935483
11	799347	660	685.07476454433
11	839331	680	720.74637894972
11	880420	700	734.69316812904
11	922739	720	563.28002352226
11	966804	740	760.66366110595
11	1011719	760	664.66599392586
11	1057947	780	469.26537986045
11	1105209	800	868.4808694561
11	1153542	820	971.06226157003
11	1202909	840	521.6599169065
11	1253353	860	715.92563869929
11	1304640	880	877.09315045089
11	1357696	900	761.10413358236
11	1411850	920	715.82848187833
11	1467970	940	1112.3634578164
11	1525103	960	912.77853452937
11	1583206	980	961.71216967871
11	1643680	1000	668.3067606014
11	1705698	1020	723.65907748705
11	1767832	1040	481.18667666098
11	1832187	1060	1172.2966863807
11	1898470	1080	874.02166702271
11	1966959	1100	719.02782772247
11	2037251	1120	720.91315101462
11	2108698	1140	920.25401011079
11	2181863	1160	1158.8360643284
11	2257265	1180	966.4930849642
11	2334226	1200	722.57913780463
11	2413554	1220	1058.9655653471
11	2494879	1240	980.45841683193
11	2578858	1260	919.49561638425
11	2664655	1280	1183.348164303
11	2752910	1300	1106.3403790504
11	2842565	1320	805.45894488654
11	2934285	1340	685.47310028525
11	3027664	1360	829.29546534605
11	3122937	1380	1061.8732314777
11	3220451	1400	1066.4781912343
11	3320212	1420	784.16899808579
11	3422520	1440	772.37726941437
11	3527135	1460	780.68238301223
11	3634063	1480	1215.8366843416
11	3743433	1500	1069.7543212425
11	3855586	1520	879.24419216199
11	3969025	1540	881.77552462372
11	4085073	1560	691.39451390271
11	4203434	1580	911.91792322584
11	4323333	1600	930.19035504442
11	4445557	1620	1221.1416729184
11	4570817	1640	1057.6753608285
11	4698352	1660	1229.2315981856
12	145499	240	46.947959796352
12	171314	260	47.346302940583
12	198378	280	47.535570127092
12	225590	300	47.756863541693
12	252761	320	47.257351450302
12	279923	340	46.691036051029
12	307933	360	47.556753219423
12	336326	380	47.079543763651
12	365060	400	46.788758491145
12	393899	420	47.954581340993
12	423589	440	47.932673904494
12	453973	460	47.100963269956
12	484492	480	47.633764818011
12	515792	500	46.73642282626
12	547984	520	47.700896266566
12	581355	540	47.984326174031
12	615368	560	46.215477805371
12	649946	580	46.779038622846
12	685439	600	47.510957895609
12	722293	620	48.286999270293
12	760239	640	47.298341129025
12	799347	660	48.933911753166
12	839331	680	48.049758596648
12	880420	700	48.979544541936
12	922739	720	46.940001960188
12	966804	740	47.541478819122
12	1011719	760	47.476142423276
12	1057947	780	46.926537986045
12	1105209	800	48.248937192005
12	1153542	820	48.553113078501
12	1202909	840	47.423628809682
12	1253353	860	47.728375913286
12	1304640	880	48.727397247272
12	1357696	900	47.569008348898
12	1411850	920	47.721898791889
12	1467970	940	48.363628600712
12	1525103	960	48.040975501546
12	1583206	980	48.085608483936
12	1643680	1000	47.736197185814
12	1705698	1020	48.243938499137
12	1767832	1040	48.118667666098
12	1832187	1060	48.845695265864
12	1898470	1080	48.55675927904
12	1966959	1100	47.935188514831
12	2037251	1120	48.060876734308
12	2108698	1140	48.434421584779
12	2181863	1160	48.284836013681
12	2257265	1180	48.32465424821
12	2334226	1200	48.171942520309
12	2413554	1220	48.134798424868
12	2494879	1240	49.022920841596
12	2578858	1260	48.394506125487
12	2664655	1280	49.306173512623
12	2752910	1300	48.101755610888
12	2842565	1320	47.379937934502
12	2934285	1340	48.962364306089
12	3027664	1360	48.782086196826
12	3122937	1380	48.266965067167
12	3220451	1400	48.47628141974
12	3320212	1420	49.010562380362
12	3422520	1440	48.273579338398
12	3527135	1460	48.792648938264
12	3634063	1480	48.633467373665
12	3743433	1500	48.625196420113
12	3855586	1520	48.846899564555
12	3969025	1540	48.987529145762
12	4085073	1560	49.385322421622
12	4203434	1580	47.995680169781
12	4323333	1600	48.957387107601
12	4445557	1620	48.845666916737
12	4570817	1640	48.076152764931
12	4698352	1660	49.169263927424
13	145499	240	1.551385862605
13	171314	260	1.7526207694592
13	198378	280	1.6312350287213
13	225590	300	1.7400045445665
13	252761	320	0.92132105679534
13	279923	340	1.4501526372295
13	307933	360	1.8642939550667
13	336326	380	0.98190421289185
13	365060	400	1.1121423098124
13	393899	420	2.3540670373968
13	423589	440	1.8401580191195
13	453973	460	1.3277741962675
13	484492	480	2.8920625771006
13	515792	500	1.6757099522367
13	547984	520	2.1463475871819
13	581355	540	2.7083064430728
13	615368	560	0.55125100703911
13	649946	580	1.6230432579114
13	685439	600	1.7160833050118
13	722293	620	2.2383452703744
13	760239	640	1.929259415302
13	799347	660	3.579247588635
13	839331	680	1.5791350279786
13	880420	700	2.132528430452
13	922739	720	1.9895337347864
13	966804	740	1.9430932728704
13	1011719	760	2.3779277508135
13	1057947	780	1.498673125938
13	1105209	800	1.9993552881607
13	1153542	820	2.4088119201813
13	1202909	840	2.2489827008893
13	1253353	860	2.2972497336386
13	1304640	880	2.0306624828917
13	1357696	900	2.4156060511184
13	1411850	920	1.7926261559872
13	1467970	940	2.1718568218407
13	1525103	960	2.142744455504
13	1583206	980	1.644991354923
13	1643680	1000	1.5960403558225
13	1705698	1020	1.9618423238592
13	1767832	1040	1.6128147028462
13	1832187	1060	2.0605022168717
13	1898470	1080	1.9663987812254
13	1966959	1100	1.7878038698405
13	2037251	1120	1.9911903468773
13	2108698	1140	1.8398925026951
13	2181863	1160	1.5660281686616
13	2257265	1180	1.8992958259499
13	2334226	1200	2.1095258858
13	2413554	1220	2.3675871297614
13	2494879	1240	2.3306770558289
13	2578858	1260	2.2902091481979
13	2664655	1280	2.4660339109796
13	2752910	1300	1.7066857897432
13	2842565	1320	1.9503152464205
13	2934285	1340	2.0319922391504
13	3027664	1360	2.4004381465688
13	3122937	1380	2.1210158822395
13	3220451	1400	2.0762354376131
13	3320212	1420	1.8262196412257
13	3422520	1440	1.9434884381924
13	3527135	1460	1.7308924915205
13	3634063	1480	2.5834972542562
13	3743433	1500	2.0844546589695
13	3855586	1520	2.0407615039569
13	3969025	1540	2.3564473719792
13	4085073	1560	1.7870214731547
13	4203434	1580	2.0555654167178
13	4323333	1600	1.9217012737866
13	4445557	1620	2.1972282605047
13	4570817	1640	1.6442823767153
13	4698352	1660	2.1403570002791
14	145499	240	2.4067980946906
14	171314	260	3.0716795615398
14	198378	280	2.6609277189275
14	225590	300	3.0276158151122
14	252761	320	0.84883248969448
14	279923	340	2.1029426712637
14	307933	360	3.4755919508983
14	336326	380	0.96413588329476
14	365060	400	1.2368605172748
14	393899	420	5.5416316165584
14	423589	440	3.3861815353298
14	453973	460	1.7629843162739
14	484492	480	8.364025949866
14	515792	500	2.808003844025
14	547984	520	4.6068079650017
14	581355	540	7.3349237895895
14	615368	560	0.30387767276164
14	649946	580	2.6342694170518
14	685439	600	2.9449419097401
14	722293	620	5.0101895494073
14	760239	640	3.7220418915316
14	799347	660	12.81101330075
14	839331	680	2.493667436589
14	880420	700	4.5476775066861
14	922739	720	3.958244481853
14	966804	740	3.7756114670744
14	1011719	760	5.6545403880889
14	1057947	780	2.2460211384087
14	1105209	800	3.9974215682962
14	1153542	820	5.8023748668076
14	1202909	840	5.0579231888993
14	1253353	860	5.2773563387028
14	1304640	880	4.1235901194238
14	1357696	900	5.8351525941997
14	1411850	920	3.2135085351296
14	1467970	940	4.7169620545758
14	1525103	960	4.5913538015933
14	1583206	980	2.7059965577714
14	1643680	1000	2.5473448174139
14	1705698	1020	3.8488253036853
14	1767832	1040	2.6011712657169
14	1832187	1060	4.245669385733
14	1898470	1080	3.8667241668048
14	1966959	1100	3.1962426770165
14	2037251	1120	3.9648389974975
14	2108698	1140	3.3852044214738
14	2181863	1160	2.4524442250415
14	2257265	1180	3.6073246344706
14	2334226	1200	4.4500994628604
14	2413554	1220	5.6054688170119
14	2494879	1240	5.4320555385673
14	2578858	1260	5.2450579424893
14	2664655	1280	6.0813232501016
14	2752910	1300	2.9127763849114
14	2842565	1320	3.8037295604204
14	2934285	1340	4.1289924599676
14	3027664	1360	5.7621032955027
14	3122937	1380	4.4987083727123
14	3220451	1400	4.3107535924003
14	3320212	1420	3.3350781779987
14	3422520	1440	3.7771473093876
14	3527135	1460	2.9959888172022
14	3634063	1480	6.6744580627495
14	3743433	1500	4.3449512252999
14	3855586	1520	4.1647075160324
14	3969025	1540	5.5528442169078
14	4085073	1560	3.1934457455159
14	4203434	1580	4.2253491824064
14	4323333	1600	3.6929357856731
14	4445557	1620	4.8278120287603