version 2
run statisticRVV-52-20150327-02:06:44-8536
attr c 11
attr configname statisticRVV
attr datetime 20150327-02:06:44
attr experiment statisticRVV
attr inifile omnetpp.ini
attr iterationvars "$sc=\"erlangen-low.launchd.xml\", $p=1/10, $c=11"
attr iterationvars2 "$sc=\"erlangen-low.launchd.xml\", $p=1/10, $c=11, $repetition=2"
attr measurement "$sc=\"erlangen-low.launchd.xml\", $p=1/10, $c=11"
attr network RSUExampleScenario
attr p 1/10
attr processid 8536
attr repetition 2
attr replication #2
attr resultdir results
attr runnumber 52
attr sc "\"erlangen-low.launchd.xml\""
attr seedset 52

vector 0  RSUExampleScenario.rsu[0].appl  Number_CH  ETV
vector 1  RSUExampleScenario.rsu[0].appl  Number_ON  ETV
vector 2  RSUExampleScenario.rsu[0].appl  Number_FN  ETV
vector 3  RSUExampleScenario.rsu[0].appl  Number_CH_Losts  ETV
vector 4  RSUExampleScenario.rsu[0].appl  Number_CH_Losts  ETV
vector 5  RSUExampleScenario.rsu[0].appl  Mean_Cluster_Size  ETV
vector 6  RSUExampleScenario.rsu[0].appl  StdDev_Cluster_Size  ETV
vector 7  RSUExampleScenario.rsu[0].appl  Variance_Cluster_Size  ETV
vector 8  RSUExampleScenario.rsu[0].appl  Mean_Neighbors  ETV
vector 9  RSUExampleScenario.rsu[0].appl  StdDev_Neighbors  ETV
vector 10  RSUExampleScenario.rsu[0].appl  Variance_Neighbors  ETV
vector 11  RSUExampleScenario.rsu[0].appl  Total_CH_Utility  ETV
vector 12  RSUExampleScenario.rsu[0].appl  Mean_CH_Utility  ETV
vector 13  RSUExampleScenario.rsu[0].appl  StdDev_CH_Utility  ETV
vector 14  RSUExampleScenario.rsu[0].appl  Variance_CH_Utility  ETV
vector 15  RSUExampleScenario.rsu[0].appl  Total_exp_CH_Utility  ETV
vector 16  RSUExampleScenario.rsu[0].appl  Mean_exp_CH_Utility  ETV
vector 17  RSUExampleScenario.rsu[0].appl  StdDev_exp_CH_Utility  ETV
vector 18  RSUExampleScenario.rsu[0].appl  Variance_exp_CH_Utility  ETV
vector 19  RSUExampleScenario.rsu[0].appl  Total_ON_Utility  ETV
vector 20  RSUExampleScenario.rsu[0].appl  Mean_ON_Utility  ETV
vector 21  RSUExampleScenario.rsu[0].appl  StdDev_ON_Utility  ETV
vector 22  RSUExampleScenario.rsu[0].appl  Variance_ON_Utility  ETV
vector 23  RSUExampleScenario.rsu[0].appl  Total_exp_ON_Utility  ETV
vector 24  RSUExampleScenario.rsu[0].appl  Mean_exp_ON_Utility  ETV
vector 25  RSUExampleScenario.rsu[0].appl  StdDev_exp_ON_Utility  ETV
vector 26  RSUExampleScenario.rsu[0].appl  Variance_exp_ON_Utility  ETV
0	34505	240	4
0	39726	260	5
0	45012	280	4
0	50211	300	2
0	55479	320	4
0	60887	340	4
0	66248	360	3
0	71581	380	4
0	76882	400	2
0	82260	420	3
0	87654	440	2
0	93008	460	3
0	98270	480	2
0	103524	500	5
0	108887	520	5
0	114163	540	3
0	119458	560	3
0	124719	580	2
0	129949	600	0
0	135351	620	4
0	140635	640	1
0	145911	660	7
0	151261	680	2
0	156555	700	3
0	161868	720	4
0	167225	740	4
0	172540	760	6
0	177920	780	3
0	183275	800	3
0	188673	820	5
0	193995	840	5
0	199337	860	3
0	204721	880	6
0	209925	900	3
0	215162	920	6
0	220493	940	7
0	225722	960	3
0	231014	980	1
0	236375	1000	5
0	241633	1020	5
0	246993	1040	2
0	252351	1060	5
0	257615	1080	2
0	263027	1100	3
0	268213	1120	5
0	273563	1140	4
0	278866	1160	4
0	284268	1180	4
0	289616	1200	3
0	295006	1220	4
0	300284	1240	5
0	305639	1260	3
0	310991	1280	3
0	316289	1300	2
0	321689	1320	6
0	327077	1340	5
0	332412	1360	1
0	337720	1380	3
0	343022	1400	6
0	348311	1420	2
0	353595	1440	5
0	358933	1460	6
0	364203	1480	9
0	369509	1500	6
0	374682	1520	7
0	380092	1540	4
0	385424	1560	1
0	390775	1580	4
0	396110	1600	4
0	401339	1620	2
0	406610	1640	4
0	411951	1660	2
0	417295	1680	3
0	422477	1700	3
0	427846	1720	4
0	433146	1740	5
0	438508	1760	2
0	443822	1780	1
0	449060	1800	3
0	454019	1820	2
0	458297	1840	1
0	462109	1860	0
0	465470	1880	1
0	468341	1900	0
0	470893	1920	0
0	472881	1940	1
0	474490	1960	1
0	475559	1980	1
0	476196	2000	0
1	34505	240	11
1	39726	260	9
1	45012	280	11
1	50211	300	5
1	55479	320	13
1	60887	340	12
1	66248	360	7
1	71581	380	12
1	76882	400	14
1	82260	420	12
1	87654	440	8
1	93008	460	9
1	98270	480	7
1	103524	500	19
1	108887	520	17
1	114163	540	10
1	119458	560	5
1	124719	580	3
1	129949	600	0
1	135351	620	14
1	140635	640	2
1	145911	660	15
1	151261	680	8
1	156555	700	12
1	161868	720	11
1	167225	740	14
1	172540	760	14
1	177920	780	11
1	183275	800	13
1	188673	820	17
1	193995	840	11
1	199337	860	8
1	204721	880	13
1	209925	900	7
1	215162	920	13
1	220493	940	13
1	225722	960	10
1	231014	980	4
1	236375	1000	15
1	241633	1020	11
1	246993	1040	4
1	252351	1060	13
1	257615	1080	4
1	263027	1100	14
1	268213	1120	9
1	273563	1140	12
1	278866	1160	12
1	284268	1180	5
1	289616	1200	10
1	295006	1220	6
1	300284	1240	14
1	305639	1260	13
1	310991	1280	11
1	316289	1300	4
1	321689	1320	13
1	327077	1340	10
1	332412	1360	2
1	337720	1380	12
1	343022	1400	17
1	348311	1420	8
1	353595	1440	16
1	358933	1460	13
1	364203	1480	17
1	369509	1500	13
1	374682	1520	15
1	380092	1540	13
1	385424	1560	1
1	390775	1580	13
1	396110	1600	10
1	401339	1620	11
1	406610	1640	11
1	411951	1660	5
1	417295	1680	15
1	422477	1700	14
1	427846	1720	9
1	433146	1740	12
1	438508	1760	5
1	443822	1780	2
1	449060	1800	7
1	454019	1820	4
1	458297	1840	4
1	462109	1860	0
1	465470	1880	7
1	468341	1900	0
1	470893	1920	0
1	472881	1940	4
1	474490	1960	4
1	475559	1980	1
1	476196	2000	0
2	34505	240	24
2	39726	260	26
2	45012	280	25
2	50211	300	33
2	55479	320	22
2	60887	340	25
2	66248	360	31
2	71581	380	24
2	76882	400	24
2	82260	420	26
2	87654	440	32
2	93008	460	27
2	98270	480	30
2	103524	500	16
2	108887	520	18
2	114163	540	27
2	119458	560	32
2	124719	580	35
2	129949	600	41
2	135351	620	23
2	140635	640	38
2	145911	660	17
2	151261	680	30
2	156555	700	24
2	161868	720	24
2	167225	740	22
2	172540	760	20
2	177920	780	27
2	183275	800	24
2	188673	820	20
2	193995	840	24
2	199337	860	28
2	204721	880	22
2	209925	900	29
2	215162	920	22
2	220493	940	20
2	225722	960	26
2	231014	980	35
2	236375	1000	20
2	241633	1020	25
2	246993	1040	36
2	252351	1060	23
2	257615	1080	34
2	263027	1100	24
2	268213	1120	25
2	273563	1140	25
2	278866	1160	25
2	284268	1180	32
2	289616	1200	28
2	295006	1220	30
2	300284	1240	22
2	305639	1260	25
2	310991	1280	28
2	316289	1300	34
2	321689	1320	22
2	327077	1340	25
2	332412	1360	36
2	337720	1380	25
2	343022	1400	18
2	348311	1420	30
2	353595	1440	19
2	358933	1460	21
2	364203	1480	14
2	369509	1500	22
2	374682	1520	19
2	380092	1540	24
2	385424	1560	39
2	390775	1580	23
2	396110	1600	26
2	401339	1620	26
2	406610	1640	25
2	411951	1660	35
2	417295	1680	22
2	422477	1700	23
2	427846	1720	27
2	433146	1740	24
2	438508	1760	34
2	443822	1780	38
2	449060	1800	30
2	454019	1820	32
2	458297	1840	29
2	462109	1860	31
2	465470	1880	20
2	468341	1900	24
2	470893	1920	21
2	472881	1940	13
2	474490	1960	9
2	475559	1980	9
2	476196	2000	8
3	34505	240	0
3	39726	260	0
3	45012	280	0
3	50211	300	0
3	55479	320	0
3	60887	340	0
3	66248	360	0
3	71581	380	0
3	76882	400	0
3	82260	420	1
3	87654	440	0
3	93008	460	0
3	98270	480	0
3	103524	500	0
3	108887	520	1
3	114163	540	0
3	119458	560	0
3	124719	580	0
3	129949	600	0
3	135351	620	0
3	140635	640	0
3	145911	660	0
3	151261	680	0
3	156555	700	0
3	161868	720	1
3	167225	740	0
3	172540	760	1
3	177920	780	1
3	183275	800	2
3	188673	820	0
3	193995	840	0
3	199337	860	0
3	204721	880	0
3	209925	900	0
3	215162	920	0
3	220493	940	0
3	225722	960	0
3	231014	980	0
3	236375	1000	0
3	241633	1020	1
3	246993	1040	0
3	252351	1060	1
3	257615	1080	0
3	263027	1100	1
3	268213	1120	2
3	273563	1140	0
3	278866	1160	0
3	284268	1180	0
3	289616	1200	1
3	295006	1220	1
3	300284	1240	0
3	305639	1260	0
3	310991	1280	0
3	316289	1300	0
3	321689	1320	0
3	327077	1340	0
3	332412	1360	0
3	337720	1380	1
3	343022	1400	0
3	348311	1420	0
3	353595	1440	0
3	358933	1460	0
3	364203	1480	1
3	369509	1500	0
3	374682	1520	1
3	380092	1540	0
3	385424	1560	0
3	390775	1580	0
3	396110	1600	0
3	401339	1620	0
3	406610	1640	1
3	411951	1660	0
3	417295	1680	0
3	422477	1700	0
3	427846	1720	1
3	433146	1740	1
3	438508	1760	0
3	443822	1780	0
3	449060	1800	0
3	454019	1820	0
3	458297	1840	0
3	462109	1860	0
3	465470	1880	0
3	468341	1900	0
3	470893	1920	0
3	472881	1940	0
3	474490	1960	0
3	475559	1980	1
3	476196	2000	0
4	34505	240	24
4	39726	260	26
4	45012	280	25
4	50211	300	33
4	55479	320	22
4	60887	340	24
4	66248	360	31
4	71581	380	24
4	76882	400	24
4	82260	420	25
4	87654	440	31
4	93008	460	27
4	98270	480	30
4	103524	500	15
4	108887	520	16
4	114163	540	27
4	119458	560	32
4	124719	580	35
4	129949	600	41
4	135351	620	23
4	140635	640	38
4	145911	660	17
4	151261	680	30
4	156555	700	24
4	161868	720	23
4	167225	740	22
4	172540	760	19
4	177920	780	26
4	183275	800	22
4	188673	820	19
4	193995	840	24
4	199337	860	28
4	204721	880	22
4	209925	900	29
4	215162	920	22
4	220493	940	20
4	225722	960	25
4	231014	980	35
4	236375	1000	19
4	241633	1020	23
4	246993	1040	35
4	252351	1060	22
4	257615	1080	34
4	263027	1100	23
4	268213	1120	23
4	273563	1140	25
4	278866	1160	25
4	284268	1180	32
4	289616	1200	27
4	295006	1220	29
4	300284	1240	22
4	305639	1260	25
4	310991	1280	28
4	316289	1300	34
4	321689	1320	22
4	327077	1340	24
4	332412	1360	36
4	337720	1380	24
4	343022	1400	18
4	348311	1420	30
4	353595	1440	19
4	358933	1460	21
4	364203	1480	13
4	369509	1500	22
4	374682	1520	18
4	380092	1540	24
4	385424	1560	39
4	390775	1580	23
4	396110	1600	26
4	401339	1620	26
4	406610	1640	24
4	411951	1660	34
4	417295	1680	22
4	422477	1700	23
4	427846	1720	26
4	433146	1740	23
4	438508	1760	34
4	443822	1780	38
4	449060	1800	30
4	454019	1820	32
4	458297	1840	29
4	462109	1860	31
4	465470	1880	20
4	468341	1900	24
4	470893	1920	21
4	472881	1940	13
4	474490	1960	9
4	475559	1980	8
4	476196	2000	8
5	34505	240	2.75
5	39726	260	1.8
5	45012	280	2.75
5	50211	300	2.5
5	55479	320	3.25
5	60887	340	3
5	66248	360	2.3333333333333
5	71581	380	3
5	76882	400	7
5	82260	420	4
5	87654	440	4
5	93008	460	3
5	98270	480	3.5
5	103524	500	3.8
5	108887	520	3.4
5	114163	540	3.3333333333333
5	119458	560	1.6666666666667
5	124719	580	1.5
5	129949	600	nan
5	135351	620	3.5
5	140635	640	2
5	145911	660	2.1428571428571
5	151261	680	4
5	156555	700	4
5	161868	720	2.75
5	167225	740	3.5
5	172540	760	2.3333333333333
5	177920	780	3.6666666666667
5	183275	800	4.3333333333333
5	188673	820	3.4
5	193995	840	2.2
5	199337	860	2.6666666666667
5	204721	880	2.1666666666667
5	209925	900	2.3333333333333
5	215162	920	2.1666666666667
5	220493	940	1.8571428571429
5	225722	960	3.3333333333333
5	231014	980	4
5	236375	1000	3
5	241633	1020	2.2
5	246993	1040	2
5	252351	1060	2.6
5	257615	1080	2
5	263027	1100	4.6666666666667
5	268213	1120	1.8
5	273563	1140	3
5	278866	1160	3
5	284268	1180	1.25
5	289616	1200	3.3333333333333
5	295006	1220	1.5
5	300284	1240	2.8
5	305639	1260	4.3333333333333
5	310991	1280	3.6666666666667
5	316289	1300	2
5	321689	1320	2.1666666666667
5	327077	1340	2
5	332412	1360	2
5	337720	1380	4
5	343022	1400	2.8333333333333
5	348311	1420	4
5	353595	1440	3.2
5	358933	1460	2.1666666666667
5	364203	1480	1.8888888888889
5	369509	1500	2.1666666666667
5	374682	1520	2.1428571428571
5	380092	1540	3.25
5	385424	1560	1
5	390775	1580	3.25
5	396110	1600	2.5
5	401339	1620	5.5
5	406610	1640	2.75
5	411951	1660	2.5
5	417295	1680	5
5	422477	1700	4.6666666666667
5	427846	1720	2.25
5	433146	1740	2.4
5	438508	1760	2.5
5	443822	1780	2
5	449060	1800	2.3333333333333
5	454019	1820	2
5	458297	1840	4
5	462109	1860	nan
5	465470	1880	7
5	468341	1900	nan
5	470893	1920	nan
5	472881	1940	4
5	474490	1960	4
5	475559	1980	1
5	476196	2000	nan
6	34505	240	1.7078251276599
6	39726	260	0.83666002653408
6	45012	280	2.3629078131263
6	50211	300	0.70710678118655
6	55479	320	2.6299556396766
6	60887	340	2.1602468994693
6	66248	360	1.5275252316519
6	71581	380	1.4142135623731
6	76882	400	1.4142135623731
6	82260	420	1.7320508075689
6	87654	440	0
6	93008	460	2.6457513110646
6	98270	480	0.70710678118655
6	103524	500	0.83666002653408
6	108887	520	2.3021728866443
6	114163	540	1.5275252316519
6	119458	560	0.57735026918963
6	124719	580	0.70710678118655
6	129949	600	nan
6	135351	620	3.6968455021365
6	140635	640	nan
6	145911	660	1.0690449676497
6	151261	680	1.4142135623731
6	156555	700	1
6	161868	720	1.5
6	167225	740	3.1091263510296
6	172540	760	1.211060141639
6	177920	780	2.8867513459481
6	183275	800	1.5275252316519
6	188673	820	1.9493588689618
6	193995	840	0.83666002653408
6	199337	860	0.57735026918963
6	204721	880	1.16904519445
6	209925	900	0.57735026918963
6	215162	920	1.471960144388
6	220493	940	1.0690449676497
6	225722	960	3.2145502536643
6	231014	980	nan
6	236375	1000	1
6	241633	1020	0.83666002653408
6	246993	1040	0
6	252351	1060	1.9493588689618
6	257615	1080	0
6	263027	1100	3.7859388972002
6	268213	1120	0.44721359549996
6	273563	1140	1.4142135623731
6	278866	1160	1.4142135623731
6	284268	1180	0.5
6	289616	1200	2.3094010767585
6	295006	1220	0.57735026918963
6	300284	1240	1.3038404810405
6	305639	1260	3.2145502536643
6	310991	1280	2.8867513459481
6	316289	1300	1.4142135623731
6	321689	1320	1.940790217068
6	327077	1340	0.70710678118655
6	332412	1360	nan
6	337720	1380	2
6	343022	1400	1.471960144388
6	348311	1420	1.4142135623731
6	353595	1440	2.3874672772627
6	358933	1460	0.75277265270908
6	364203	1480	1.9649710204253
6	369509	1500	0.75277265270908
6	374682	1520	1.3451854182691
6	380092	1540	2.5
6	385424	1560	nan
6	390775	1580	3.2015621187164
6	396110	1600	1
6	401339	1620	3.5355339059327
6	406610	1640	2.872281323269
6	411951	1660	0.70710678118655
6	417295	1680	3.605551275464
6	422477	1700	2.0816659994661
6	427846	1720	0.95742710775634
6	433146	1740	0.54772255750517
6	438508	1760	0.70710678118655
6	443822	1780	nan
6	449060	1800	1.5275252316519
6	454019	1820	0
6	458297	1840	nan
6	462109	1860	nan
6	465470	1880	nan
6	468341	1900	nan
6	470893	1920	nan
6	472881	1940	nan
6	474490	1960	nan
6	475559	1980	nan
6	476196	2000	nan
7	34505	240	2.9166666666667
7	39726	260	0.7
7	45012	280	5.5833333333333
7	50211	300	0.5
7	55479	320	6.9166666666667
7	60887	340	4.6666666666667
7	66248	360	2.3333333333333
7	71581	380	2
7	76882	400	2
7	82260	420	3
7	87654	440	0
7	93008	460	7
7	98270	480	0.5
7	103524	500	0.7
7	108887	520	5.3
7	114163	540	2.3333333333333
7	119458	560	0.33333333333333
7	124719	580	0.5
7	129949	600	nan
7	135351	620	13.666666666667
7	140635	640	nan
7	145911	660	1.1428571428571
7	151261	680	2
7	156555	700	1
7	161868	720	2.25
7	167225	740	9.6666666666667
7	172540	760	1.4666666666667
7	177920	780	8.3333333333333
7	183275	800	2.3333333333333
7	188673	820	3.8
7	193995	840	0.7
7	199337	860	0.33333333333333
7	204721	880	1.3666666666667
7	209925	900	0.33333333333333
7	215162	920	2.1666666666667
7	220493	940	1.1428571428571
7	225722	960	10.333333333333
7	231014	980	nan
7	236375	1000	1
7	241633	1020	0.7
7	246993	1040	0
7	252351	1060	3.8
7	257615	1080	0
7	263027	1100	14.333333333333
7	268213	1120	0.2
7	273563	1140	2
7	278866	1160	2
7	284268	1180	0.25
7	289616	1200	5.3333333333333
7	295006	1220	0.33333333333333
7	300284	1240	1.7
7	305639	1260	10.333333333333
7	310991	1280	8.3333333333333
7	316289	1300	2
7	321689	1320	3.7666666666667
7	327077	1340	0.5
7	332412	1360	nan
7	337720	1380	4
7	343022	1400	2.1666666666667
7	348311	1420	2
7	353595	1440	5.7
7	358933	1460	0.56666666666667
7	364203	1480	3.8611111111111
7	369509	1500	0.56666666666667
7	374682	1520	1.8095238095238
7	380092	1540	6.25
7	385424	1560	nan
7	390775	1580	10.25
7	396110	1600	1
7	401339	1620	12.5
7	406610	1640	8.25
7	411951	1660	0.5
7	417295	1680	13
7	422477	1700	4.3333333333333
7	427846	1720	0.91666666666667
7	433146	1740	0.3
7	438508	1760	0.5
7	443822	1780	nan
7	449060	1800	2.3333333333333
7	454019	1820	0
7	458297	1840	nan
7	462109	1860	nan
7	465470	1880	nan
7	468341	1900	nan
7	470893	1920	nan
7	472881	1940	nan
7	474490	1960	nan
7	475559	1980	nan
7	476196	2000	nan
8	34505	240	8.8205128205128
8	39726	260	8.9
8	45012	280	9
8	50211	300	8.925
8	55479	320	9.025641025641
8	60887	340	9
8	66248	360	8.9512195121951
8	71581	380	9.025
8	76882	400	8.925
8	82260	420	8.8292682926829
8	87654	440	9.0975609756098
8	93008	460	8.974358974359
8	98270	480	8.9230769230769
8	103524	500	8.6923076923077
8	108887	520	9.3076923076923
8	114163	540	8.775
8	119458	560	8.925
8	124719	580	9.025
8	129949	600	8.8780487804878
8	135351	620	8.6585365853659
8	140635	640	9.0243902439024
8	145911	660	9.1794871794872
8	151261	680	9.15
8	156555	700	9.1538461538462
8	161868	720	9.025641025641
8	167225	740	9.05
8	172540	760	8.85
8	177920	780	8.9756097560976
8	183275	800	9.05
8	188673	820	9.0975609756098
8	193995	840	9.25
8	199337	860	9.1282051282051
8	204721	880	8.780487804878
8	209925	900	9.0512820512821
8	215162	920	8.6341463414634
8	220493	940	8.825
8	225722	960	9.2368421052632
8	231014	980	9.15
8	236375	1000	8.8974358974359
8	241633	1020	8.95
8	246993	1040	9
8	252351	1060	8.8292682926829
8	257615	1080	8.975
8	263027	1100	8.95
8	268213	1120	9.1025641025641
8	273563	1140	8.6829268292683
8	278866	1160	8.9756097560976
8	284268	1180	8.9756097560976
8	289616	1200	8.8292682926829
8	295006	1220	8.975
8	300284	1240	9.0243902439024
8	305639	1260	8.8536585365854
8	310991	1280	8.8571428571429
8	316289	1300	9.1
8	321689	1320	9.0975609756098
8	327077	1340	9.1538461538462
8	332412	1360	9.0512820512821
8	337720	1380	9.05
8	343022	1400	8.7560975609756
8	348311	1420	8.8
8	353595	1440	9.1
8	358933	1460	8.975
8	364203	1480	8.825
8	369509	1500	8.609756097561
8	374682	1520	8.8292682926829
8	380092	1540	8.8048780487805
8	385424	1560	9.0487804878049
8	390775	1580	9.1
8	396110	1600	9.075
8	401339	1620	9.0512820512821
8	406610	1640	9.025
8	411951	1660	8.9756097560976
8	417295	1680	9.125
8	422477	1700	8.95
8	427846	1720	9.05
8	433146	1740	8.8536585365854
8	438508	1760	9.0487804878049
8	443822	1780	8.9512195121951
8	449060	1800	9.1
8	454019	1820	8.8421052631579
8	458297	1840	8.2941176470588
8	462109	1860	8.4516129032258
8	465470	1880	8.1071428571429
8	468341	1900	8.1666666666667
8	470893	1920	7.8095238095238
8	472881	1940	7.7777777777778
8	474490	1960	7.4285714285714
8	475559	1980	6.3636363636364
8	476196	2000	5.25
9	34505	240	1.9850996908785
9	39726	260	1.7802333468483
9	45012	280	2.1483446221183
9	50211	300	1.5087352489029
9	55479	320	1.6138737230843
9	60887	340	1.4142135623731
9	66248	360	2.0730559509115
9	71581	380	1.6561849890482
9	76882	400	1.5256356388614
9	82260	420	1.7450277794979
9	87654	440	1.8815535874482
9	93008	460	1.769436120219
9	98270	480	1.6604472350072
9	103524	500	1.7793234396349
9	108887	520	1.6882542548887
9	114163	540	1.9012479032845
9	119458	560	2.1529645631678
9	124719	580	1.2503845562312
9	129949	600	2.2044854496143
9	135351	620	2.4042645039342
9	140635	640	2.3397414908281
9	145911	660	1.6838520198733
9	151261	680	1.7179295827484
9	156555	700	1.7701986439003
9	161868	720	1.7545006710139
9	167225	740	1.5516740339686
9	172540	760	1.7621373967793
9	177920	780	2.1270614104681
9	183275	800	1.5681117176319
9	188673	820	1.3191830435686
9	193995	840	1.4455945454185
9	199337	860	1.3412383747372
9	204721	880	2.2417871790376
9	209925	900	1.6213820931655
9	215162	920	2.1066098067864
9	220493	940	1.4302142568555
9	225722	960	1.3443417062057
9	231014	980	1.6878145480822
9	236375	1000	1.7136429615676
9	241633	1020	2.1357758453402
9	246993	1040	1.8165902124585
9	252351	1060	1.8960806816218
9	257615	1080	1.7019973183865
9	263027	1100	1.9605075219416
9	268213	1120	1.3916077751041
9	273563	1140	1.7669044171975
9	278866	1160	1.7816818582178
9	284268	1180	1.5409056570415
9	289616	1200	1.6568409553181
9	295006	1220	1.9675248019158
9	300284	1240	1.9168699079234
9	305639	1260	1.5741819400844
9	310991	1280	2.0902961462659
9	316289	1300	1.7216569240422
9	321689	1320	1.6553682075113
9	327077	1340	1.3676422573647
9	332412	1360	1.972824824148
9	337720	1380	1.5182648665922
9	343022	1400	1.6849404708309
9	348311	1420	1.9767883821219
9	353595	1440	1.4286446867663
9	358933	1460	1.5273153923445
9	364203	1480	1.5833670711655
9	369509	1500	2.1316431312545
9	374682	1520	1.6867489295149
9	380092	1540	1.8196086419217
9	385424	1560	2.2688236986619
9	390775	1580	1.5819494627086
9	396110	1600	2.1766535123488
9	401339	1620	1.972824824148
9	406610	1640	1.7466084351225
9	411951	1660	2.1620338211745
9	417295	1680	1.5882178368964
9	422477	1700	1.7967206594808
9	427846	1720	1.6633299933166
9	433146	1740	2.116140066368
9	438508	1760	2.0365561557712
9	443822	1780	1.9868469935075
9	449060	1800	1.7511900715418
9	454019	1820	1.2845509424524
9	458297	1840	1.5281085905549
9	462109	1860	1.4569079055182
9	465470	1880	1.4742050139924
9	468341	1900	1.6594044679962
9	470893	1920	1.7210185245676
9	472881	1940	1.8328876463611
9	474490	1960	1.9889806323954
9	475559	1980	0.92441627773718
9	476196	2000	1.1649647450214
10	34505	240	3.940620782726
10	39726	260	3.1692307692308
10	45012	280	4.6153846153846
10	50211	300	2.2762820512821
10	55479	320	2.6045883940621
10	60887	340	2
10	66248	360	4.2975609756098
10	71581	380	2.7429487179487
10	76882	400	2.3275641025641
10	82260	420	3.0451219512195
10	87654	440	3.540243902439
10	93008	460	3.1309041835358
10	98270	480	2.7570850202429
10	103524	500	3.165991902834
10	108887	520	2.8502024291498
10	114163	540	3.6147435897436
10	119458	560	4.6352564102564
10	124719	580	1.5634615384615
10	129949	600	4.859756097561
10	135351	620	5.780487804878
10	140635	640	5.4743902439024
10	145911	660	2.8353576248313
10	151261	680	2.9512820512821
10	156555	700	3.1336032388664
10	161868	720	3.0782726045884
10	167225	740	2.4076923076923
10	172540	760	3.1051282051282
10	177920	780	4.5243902439024
10	183275	800	2.4589743589744
10	188673	820	1.740243902439
10	193995	840	2.0897435897436
10	199337	860	1.7989203778677
10	204721	880	5.0256097560976
10	209925	900	2.6288798920378
10	215162	920	4.4378048780488
10	220493	940	2.0455128205128
10	225722	960	1.8072546230441
10	231014	980	2.8487179487179
10	236375	1000	2.9365721997301
10	241633	1020	4.5615384615385
10	246993	1040	3.3
10	252351	1060	3.5951219512195
10	257615	1080	2.8967948717949
10	263027	1100	3.8435897435897
10	268213	1120	1.9365721997301
10	273563	1140	3.1219512195122
10	278866	1160	3.1743902439024
10	284268	1180	2.3743902439024
10	289616	1200	2.7451219512195
10	295006	1220	3.8711538461538
10	300284	1240	3.6743902439024
10	305639	1260	2.4780487804878
10	310991	1280	4.3693379790941
10	316289	1300	2.9641025641026
10	321689	1320	2.740243902439
10	327077	1340	1.8704453441296
10	332412	1360	3.8920377867746
10	337720	1380	2.3051282051282
10	343022	1400	2.8390243902439
10	348311	1420	3.9076923076923
10	353595	1440	2.0410256410256
10	358933	1460	2.3326923076923
10	364203	1480	2.5070512820513
10	369509	1500	4.5439024390244
10	374682	1520	2.8451219512195
10	380092	1540	3.3109756097561
10	385424	1560	5.1475609756098
10	390775	1580	2.5025641025641
10	396110	1600	4.7378205128205
10	401339	1620	3.8920377867746
10	406610	1640	3.050641025641
10	411951	1660	4.6743902439024
10	417295	1680	2.5224358974359
10	422477	1700	3.2282051282051
10	427846	1720	2.7666666666667
10	433146	1740	4.4780487804878
10	438508	1760	4.1475609756098
10	443822	1780	3.9475609756098
10	449060	1800	3.0666666666667
10	454019	1820	1.6500711237553
10	458297	1840	2.3351158645276
10	462109	1860	2.1225806451613
10	465470	1880	2.1732804232804
10	468341	1900	2.7536231884058
10	470893	1920	2.9619047619048
10	472881	1940	3.359477124183
10	474490	1960	3.956043956044
10	475559	1980	0.85454545454545
10	476196	2000	1.3571428571429
11	34505	240	189.07010474313
11	39726	260	231.15062414814
11	45012	280	182.11899983793
11	50211	300	91.93581129589
11	55479	320	187.32623785576
11	60887	340	182.53616831966
11	66248	360	136.50585136084
11	71581	380	186.73446642654
11	76882	400	89.490910302813
11	82260	420	139.35200009993
11	87654	440	91.311173836751
11	93008	460	134.11302535868
11	98270	480	90.391063259468
11	103524	500	229.09617559341
11	108887	520	226.33882781148
11	114163	540	135.64396060494
11	119458	560	136.71222246163
11	124719	580	90.800281213744
11	129949	600	0
11	135351	620	187.45818167959
11	140635	640	44.212129524744
11	145911	660	333.07487328193
11	151261	680	91.12208965254
11	156555	700	139.45256783122
11	161868	720	178.23616412227
11	167225	740	185.48096401738
11	172540	760	289.32379199661
11	177920	780	137.98981718207
11	183275	800	135.8484990378
11	188673	820	226.36814959701
11	193995	840	228.91136537662
11	199337	860	139.07666179304
11	204721	880	294.24494255634
11	209925	900	140.87751186027
11	215162	920	275.67664662929
11	220493	940	329.23581494765
11	225722	960	137.97320740459
11	231014	980	44.09023254004
11	236375	1000	231.34216478559
11	241633	1020	233.84654139769
11	246993	1040	93.023825805192
11	252351	1060	231.20072781503
11	257615	1080	96.029600703776
11	263027	1100	136.93571931192
11	268213	1120	225.37531469937
11	273563	1140	184.50974042014
11	278866	1160	184.2928722145
11	284268	1180	190.73163180064
11	289616	1200	144.70583353163
11	295006	1220	181.23216368897
11	300284	1240	228.06463671961
11	305639	1260	133.72495345775
11	310991	1280	138.15040889125
11	316289	1300	94.51636309562
11	321689	1320	276.5646909316
11	327077	1340	231.41972526839
11	332412	1360	46.289370167401
11	337720	1380	139.29744893332
11	343022	1400	281.24986724746
11	348311	1420	92.88821401873
11	353595	1440	226.79953795368
11	358933	1460	281.8736198339
11	364203	1480	415.70674698131
11	369509	1500	283.0609504711
11	374682	1520	325.03818872059
11	380092	1540	192.28379998461
11	385424	1560	47.142890647925
11	390775	1580	182.47960004643
11	396110	1600	188.42164927895
11	401339	1620	91.021612403507
11	406610	1640	186.23519392872
11	411951	1660	96.265545492347
11	417295	1680	137.85882507221
11	422477	1700	134.77940321033
11	427846	1720	182.17611753196
11	433146	1740	230.50020800455
11	438508	1760	91.390159026556
11	443822	1780	45.313506759139
11	449060	1800	130.08668521415
11	454019	1820	91.252416724091
11	458297	1840	44.859587231286
11	462109	1860	0
11	465470	1880	43.924558352531
11	468341	1900	0
11	470893	1920	0
11	472881	1940	45.82456720555
11	474490	1960	44.738783948524
11	475559	1980	54.455006663537
11	476196	2000	0
12	34505	240	47.267526185783
12	39726	260	46.230124829628
12	45012	280	45.529749959483
12	50211	300	45.967905647945
12	55479	320	46.83155946394
12	60887	340	45.634042079915
12	66248	360	45.501950453613
12	71581	380	46.683616606635
12	76882	400	44.745455151406
12	82260	420	46.450666699975
12	87654	440	45.655586918375
12	93008	460	44.704341786226
12	98270	480	45.195531629734
12	103524	500	45.819235118683
12	108887	520	45.267765562296
12	114163	540	45.21465353498
12	119458	560	45.570740820543
12	124719	580	45.400140606872
12	129949	600	nan
12	135351	620	46.864545419899
12	140635	640	44.212129524744
12	145911	660	47.582124754562
12	151261	680	45.56104482627
12	156555	700	46.484189277073
12	161868	720	44.559041030568
12	167225	740	46.370241004345
12	172540	760	48.220631999435
12	177920	780	45.996605727356
12	183275	800	45.282833012601
12	188673	820	45.273629919401
12	193995	840	45.782273075324
12	199337	860	46.358887264348
12	204721	880	49.040823759391
12	209925	900	46.95917062009
12	215162	920	45.946107771548
12	220493	940	47.033687849664
12	225722	960	45.991069134864
12	231014	980	44.09023254004
12	236375	1000	46.268432957118
12	241633	1020	46.769308279538
12	246993	1040	46.511912902596
12	252351	1060	46.240145563006
12	257615	1080	48.014800351888
12	263027	1100	45.645239770641
12	268213	1120	45.075062939873
12	273563	1140	46.127435105036
12	278866	1160	46.073218053625
12	284268	1180	47.682907950159
12	289616	1200	48.235277843876
12	295006	1220	45.308040922243
12	300284	1240	45.612927343922
12	305639	1260	44.574984485916
12	310991	1280	46.050136297082
12	316289	1300	47.25818154781
12	321689	1320	46.094115155267
12	327077	1340	46.283945053678
12	332412	1360	46.289370167401
12	337720	1380	46.432482977773
12	343022	1400	46.874977874576
12	348311	1420	46.444107009365
12	353595	1440	45.359907590736
12	358933	1460	46.978936638984
12	364203	1480	46.189638553479
12	369509	1500	47.176825078516
12	374682	1520	46.434026960084
12	380092	1540	48.070949996153
12	385424	1560	47.142890647925
12	390775	1580	45.619900011608
12	396110	1600	47.105412319736
12	401339	1620	45.510806201753
12	406610	1640	46.55879848218
12	411951	1660	48.132772746173
12	417295	1680	45.952941690738
12	422477	1700	44.926467736778
12	427846	1720	45.544029382989
12	433146	1740	46.100041600911
12	438508	1760	45.695079513278
12	443822	1780	45.313506759139
12	449060	1800	43.362228404718
12	454019	1820	45.626208362045
12	458297	1840	44.859587231286
12	462109	1860	nan
12	465470	1880	43.924558352531
12	468341	1900	nan
12	470893	1920	nan
12	472881	1940	45.82456720555
12	474490	1960	44.738783948524
12	475559	1980	54.455006663537
12	476196	2000	nan
13	34505	240	1.0681149115276
13	39726	260	1.4960389827798
13	45012	280	1.0934867393282
13	50211	300	0.19308450598642
13	55479	320	1.4297328741541
13	60887	340	1.2026597063306
13	66248	360	1.1838485633144
13	71581	380	1.6305681545567
13	76882	400	0.51516977818553
13	82260	420	0.38989319789617
13	87654	440	0.21383931909868
13	93008	460	0.719824081161
13	98270	480	0.99103740249745
13	103524	500	0.71217250255874
13	108887	520	0.83021466220702
13	114163	540	0.76221310281952
13	119458	560	0.81633927530351
13	124719	580	0.18839524973264
13	129949	600	nan
13	135351	620	1.6218260298989
13	140635	640	nan
13	145911	660	2.3494766483114
13	151261	680	0.84557389725581
13	156555	700	1.1398830275156
13	161868	720	1.7486766109774
13	167225	740	1.3154441551266
13	172540	760	3.3814410325943
13	177920	780	2.0918879954637
13	183275	800	0.74614213919493
13	188673	820	0.72411998346191
13	193995	840	0.61006904063016
13	199337	860	1.9806684254392
13	204721	880	2.2646469860468
13	209925	900	1.3217960500303
13	215162	920	1.2987620929567
13	220493	940	3.8003561170861
13	225722	960	1.4338337350797
13	231014	980	nan
13	236375	1000	1.4554477415181
13	241633	1020	0.87103869077507
13	246993	1040	1.1745771191771
13	252351	1060	1.9639390365997
13	257615	1080	4.3310418786461
13	263027	1100	1.3092875997415
13	268213	1120	1.5158176980276
13	273563	1140	0.95194243357668
13	278866	1160	0.78892875055073
13	284268	1180	2.1683911744933
13	289616	1200	2.8910931985716
13	295006	1220	0.92737140426893
13	300284	1240	0.72025712179461
13	305639	1260	0.93452339338051
13	310991	1280	0.65695639456714
13	316289	1300	0.17248679104728
13	321689	1320	1.0464847974225
13	327077	1340	1.3006883347086
13	332412	1360	nan
13	337720	1380	0.63653347224195