version 2
run statisticRVV-167-20150327-11:12:26-17080
attr c 10
attr configname statisticRVV
attr datetime 20150327-11:12:26
attr experiment statisticRVV
attr inifile omnetpp.ini
attr iterationvars "$sc=\"erlangen-medium.launchd.xml\", $p=1/10, $c=10"
attr iterationvars2 "$sc=\"erlangen-medium.launchd.xml\", $p=1/10, $c=10, $repetition=7"
attr measurement "$sc=\"erlangen-medium.launchd.xml\", $p=1/10, $c=10"
attr network RSUExampleScenario
attr p 1/10
attr processid 17080
attr repetition 7
attr replication #7
attr resultdir results
attr runnumber 167
attr sc "\"erlangen-medium.launchd.xml\""
attr seedset 167

vector 0  RSUExampleScenario.rsu[0].appl  Number_CH  ETV
vector 1  RSUExampleScenario.rsu[0].appl  Number_ON  ETV
vector 2  RSUExampleScenario.rsu[0].appl  Number_FN  ETV
vector 3  RSUExampleScenario.rsu[0].appl  Number_CH_Losts  ETV
vector 4  RSUExampleScenario.rsu[0].appl  Number_CH_Losts  ETV
vector 5  RSUExampleScenario.rsu[0].appl  Mean_Cluster_Size  ETV
vector 6  RSUExampleScenario.rsu[0].appl  StdDev_Cluster_Size  ETV
vector 7  RSUExampleScenario.rsu[0].appl  Variance_Cluster_Size  ETV
vector 8  RSUExampleScenario.rsu[0].appl  Mean_Neighbors  ETV
vector 9  RSUExampleScenario.rsu[0].appl  StdDev_Neighbors  ETV
vector 10  RSUExampleScenario.rsu[0].appl  Variance_Neighbors  ETV
vector 11  RSUExampleScenario.rsu[0].appl  Total_CH_Utility  ETV
vector 12  RSUExampleScenario.rsu[0].appl  Mean_CH_Utility  ETV
vector 13  RSUExampleScenario.rsu[0].appl  StdDev_CH_Utility  ETV
vector 14  RSUExampleScenario.rsu[0].appl  Variance_CH_Utility  ETV
vector 15  RSUExampleScenario.rsu[0].appl  Total_exp_CH_Utility  ETV
vector 16  RSUExampleScenario.rsu[0].appl  Mean_exp_CH_Utility  ETV
vector 17  RSUExampleScenario.rsu[0].appl  StdDev_exp_CH_Utility  ETV
vector 18  RSUExampleScenario.rsu[0].appl  Variance_exp_CH_Utility  ETV
vector 19  RSUExampleScenario.rsu[0].appl  Total_ON_Utility  ETV
vector 20  RSUExampleScenario.rsu[0].appl  Mean_ON_Utility  ETV
vector 21  RSUExampleScenario.rsu[0].appl  StdDev_ON_Utility  ETV
vector 22  RSUExampleScenario.rsu[0].appl  Variance_ON_Utility  ETV
vector 23  RSUExampleScenario.rsu[0].appl  Total_exp_ON_Utility  ETV
vector 24  RSUExampleScenario.rsu[0].appl  Mean_exp_ON_Utility  ETV
vector 25  RSUExampleScenario.rsu[0].appl  StdDev_exp_ON_Utility  ETV
vector 26  RSUExampleScenario.rsu[0].appl  Variance_exp_ON_Utility  ETV
0	145025	240	5
0	171034	260	6
0	198243	280	6
0	225382	300	13
0	252933	320	8
0	280266	340	8
0	307432	360	13
0	334844	380	10
0	362587	400	8
0	390378	420	6
0	419002	440	9
0	448211	460	12
0	477817	480	9
0	507953	500	10
0	538976	520	8
0	570994	540	7
0	603414	560	17
0	636567	580	5
0	670459	600	11
0	705164	620	16
0	740644	640	17
0	777019	660	8
0	815087	680	5
0	854008	700	8
0	894145	720	17
0	935965	740	16
0	979245	760	8
0	1022777	780	13
0	1067808	800	13
0	1113916	820	16
0	1160784	840	14
0	1209202	860	7
0	1258587	880	16
0	1309678	900	18
0	1360983	920	11
0	1414239	940	16
0	1468750	960	14
0	1524596	980	14
0	1581575	1000	13
0	1640822	1020	10
0	1700795	1040	7
0	1762547	1060	18
0	1826108	1080	12
0	1891117	1100	8
0	1957129	1120	17
0	2025183	1140	17
0	2094455	1160	18
0	2165891	1180	13
0	2239297	1200	18
0	2315155	1220	14
0	2391970	1240	13
0	2470945	1260	14
0	2551858	1280	14
0	2635411	1300	18
0	2720265	1320	18
0	2807830	1340	16
0	2897394	1360	12
0	2989275	1380	17
0	3082740	1400	16
0	3178522	1420	13
0	3276090	1440	11
0	3376089	1460	20
0	3478256	1480	24
0	3582480	1500	24
0	3690374	1520	20
0	3799724	1540	17
0	3911990	1560	15
0	4025620	1580	15
0	4142417	1600	14
0	4261175	1620	14
0	4382163	1640	21
0	4505859	1660	18
0	4631654	1680	13
0	4759490	1700	24
0	4889885	1720	18
0	5022332	1740	21
0	5157479	1760	18
0	5295181	1780	10
0	5434458	1800	21
0	5577233	1820	17
0	5721893	1840	20
0	5868812	1860	13
0	6018473	1880	12
0	6170609	1900	22
0	6324561	1920	17
0	6481162	1940	15
0	6641085	1960	19
0	6803184	1980	20
0	6967930	2000	13
1	145025	240	39
1	171034	260	45
1	198243	280	47
1	225382	300	58
1	252933	320	59
1	280266	340	62
1	307432	360	62
1	334844	380	76
1	362587	400	56
1	390378	420	48
1	419002	440	62
1	448211	460	80
1	477817	480	73
1	507953	500	56
1	538976	520	74
1	570994	540	63
1	603414	560	84
1	636567	580	47
1	670459	600	81
1	705164	620	79
1	740644	640	92
1	777019	660	56
1	815087	680	36
1	854008	700	70
1	894145	720	79
1	935965	740	92
1	979245	760	72
1	1022777	780	62
1	1067808	800	83
1	1113916	820	72
1	1160784	840	89
1	1209202	860	52
1	1258587	880	106
1	1309678	900	100
1	1360983	920	69
1	1414239	940	104
1	1468750	960	104
1	1524596	980	70
1	1581575	1000	76
1	1640822	1020	81
1	1700795	1040	65
1	1762547	1060	91
1	1826108	1080	85
1	1891117	1100	66
1	1957129	1120	115
1	2025183	1140	95
1	2094455	1160	109
1	2165891	1180	71
1	2239297	1200	118
1	2315155	1220	109
1	2391970	1240	103
1	2470945	1260	118
1	2551858	1280	100
1	2635411	1300	116
1	2720265	1320	93
1	2807830	1340	116
1	2897394	1360	101
1	2989275	1380	101
1	3082740	1400	90
1	3178522	1420	103
1	3276090	1440	80
1	3376089	1460	111
1	3478256	1480	134
1	3582480	1500	131
1	3690374	1520	131
1	3799724	1540	107
1	3911990	1560	118
1	4025620	1580	98
1	4142417	1600	92
1	4261175	1620	109
1	4382163	1640	131
1	4505859	1660	133
1	4631654	1680	107
1	4759490	1700	141
1	4889885	1720	128
1	5022332	1740	123
1	5157479	1760	119
1	5295181	1780	89
1	5434458	1800	151
1	5577233	1820	126
1	5721893	1840	113
1	5868812	1860	110
1	6018473	1880	103
1	6170609	1900	153
1	6324561	1920	121
1	6481162	1940	125
1	6641085	1960	127
1	6803184	1980	150
1	6967930	2000	118
2	145025	240	34
2	171034	260	35
2	198243	280	39
2	225382	300	23
2	252933	320	28
2	280266	340	25
2	307432	360	18
2	334844	380	8
2	362587	400	29
2	390378	420	41
2	419002	440	26
2	448211	460	6
2	477817	480	18
2	507953	500	34
2	538976	520	20
2	570994	540	33
2	603414	560	5
2	636567	580	55
2	670459	600	15
2	705164	620	15
2	740644	640	1
2	777019	660	46
2	815087	680	70
2	854008	700	34
2	894145	720	19
2	935965	740	9
2	979245	760	38
2	1022777	780	43
2	1067808	800	25
2	1113916	820	33
2	1160784	840	19
2	1209202	860	64
2	1258587	880	4
2	1309678	900	9
2	1360983	920	48
2	1414239	940	8
2	1468750	960	11
2	1524596	980	47
2	1581575	1000	44
2	1640822	1020	43
2	1700795	1040	61
2	1762547	1060	27
2	1826108	1080	42
2	1891117	1100	64
2	1957129	1120	9
2	2025183	1140	30
2	2094455	1160	15
2	2165891	1180	58
2	2239297	1200	7
2	2315155	1220	22
2	2391970	1240	31
2	2470945	1260	17
2	2551858	1280	33
2	2635411	1300	16
2	2720265	1320	41
2	2807830	1340	21
2	2897394	1360	43
2	2989275	1380	38
2	3082740	1400	52
2	3178522	1420	43
2	3276090	1440	69
2	3376089	1460	31
2	3478256	1480	3
2	3582480	1500	8
2	3690374	1520	12
2	3799724	1540	41
2	3911990	1560	34
2	4025620	1580	54
2	4142417	1600	63
2	4261175	1620	47
2	4382163	1640	21
2	4505859	1660	22
2	4631654	1680	52
2	4759490	1700	11
2	4889885	1720	30
2	5022332	1740	33
2	5157479	1760	41
2	5295181	1780	83
2	5434458	1800	9
2	5577233	1820	40
2	5721893	1840	50
2	5868812	1860	62
2	6018473	1880	72
2	6170609	1900	13
2	6324561	1920	50
2	6481162	1940	52
2	6641085	1960	46
2	6803184	1980	22
2	6967930	2000	63
3	145025	240	0
3	171034	260	0
3	198243	280	0
3	225382	300	0
3	252933	320	0
3	280266	340	0
3	307432	360	2
3	334844	380	1
3	362587	400	0
3	390378	420	1
3	419002	440	0
3	448211	460	0
3	477817	480	0
3	507953	500	2
3	538976	520	0
3	570994	540	0
3	603414	560	2
3	636567	580	2
3	670459	600	0
3	705164	620	0
3	740644	640	0
3	777019	660	0
3	815087	680	0
3	854008	700	0
3	894145	720	3
3	935965	740	1
3	979245	760	0
3	1022777	780	0
3	1067808	800	1
3	1113916	820	1
3	1160784	840	0
3	1209202	860	1
3	1258587	880	0
3	1309678	900	0
3	1360983	920	0
3	1414239	940	1
3	1468750	960	0
3	1524596	980	1
3	1581575	1000	1
3	1640822	1020	0
3	1700795	1040	0
3	1762547	1060	1
3	1826108	1080	1
3	1891117	1100	0
3	1957129	1120	0
3	2025183	1140	0
3	2094455	1160	1
3	2165891	1180	1
3	2239297	1200	0
3	2315155	1220	0
3	2391970	1240	0
3	2470945	1260	0
3	2551858	1280	0
3	2635411	1300	0
3	2720265	1320	0
3	2807830	1340	0
3	2897394	1360	0
3	2989275	1380	1
3	3082740	1400	0
3	3178522	1420	0
3	3276090	1440	1
3	3376089	1460	0
3	3478256	1480	1
3	3582480	1500	0
3	3690374	1520	0
3	3799724	1540	1
3	3911990	1560	0
3	4025620	1580	0
3	4142417	1600	0
3	4261175	1620	1
3	4382163	1640	2
3	4505859	1660	0
3	4631654	1680	0
3	4759490	1700	0
3	4889885	1720	2
3	5022332	1740	0
3	5157479	1760	1
3	5295181	1780	0
3	5434458	1800	0
3	5577233	1820	0
3	5721893	1840	0
3	5868812	1860	0
3	6018473	1880	0
3	6170609	1900	0
3	6324561	1920	0
3	6481162	1940	0
3	6641085	1960	0
3	6803184	1980	0
3	6967930	2000	1
4	145025	240	34
4	171034	260	35
4	198243	280	39
4	225382	300	22
4	252933	320	28
4	280266	340	25
4	307432	360	16
4	334844	380	7
4	362587	400	29
4	390378	420	40
4	419002	440	25
4	448211	460	6
4	477817	480	18
4	507953	500	32
4	538976	520	19
4	570994	540	33
4	603414	560	3
4	636567	580	53
4	670459	600	14
4	705164	620	15
4	740644	640	1
4	777019	660	46
4	815087	680	70
4	854008	700	34
4	894145	720	16
4	935965	740	8
4	979245	760	38
4	1022777	780	43
4	1067808	800	24
4	1113916	820	32
4	1160784	840	19
4	1209202	860	63
4	1258587	880	4
4	1309678	900	9
4	1360983	920	47
4	1414239	940	7
4	1468750	960	11
4	1524596	980	46
4	1581575	1000	43
4	1640822	1020	43
4	1700795	1040	61
4	1762547	1060	26
4	1826108	1080	41
4	1891117	1100	64
4	1957129	1120	9
4	2025183	1140	30
4	2094455	1160	14
4	2165891	1180	57
4	2239297	1200	7
4	2315155	1220	22
4	2391970	1240	31
4	2470945	1260	17
4	2551858	1280	33
4	2635411	1300	16
4	2720265	1320	41
4	2807830	1340	21
4	2897394	1360	42
4	2989275	1380	37
4	3082740	1400	52
4	3178522	1420	42
4	3276090	1440	68
4	3376089	1460	31
4	3478256	1480	2
4	3582480	1500	7
4	3690374	1520	12
4	3799724	1540	40
4	3911990	1560	33
4	4025620	1580	54
4	4142417	1600	62
4	4261175	1620	46
4	4382163	1640	19
4	4505859	1660	22
4	4631654	1680	52
4	4759490	1700	11
4	4889885	1720	28
4	5022332	1740	33
4	5157479	1760	40
4	5295181	1780	83
4	5434458	1800	9
4	5577233	1820	40
4	5721893	1840	50
4	5868812	1860	62
4	6018473	1880	72
4	6170609	1900	13
4	6324561	1920	50
4	6481162	1940	51
4	6641085	1960	46
4	6803184	1980	22
4	6967930	2000	62
5	145025	240	7.8
5	171034	260	7.5
5	198243	280	7.8333333333333
5	225382	300	4.4615384615385
5	252933	320	7.375
5	280266	340	7.75
5	307432	360	4.7692307692308
5	334844	380	7.6
5	362587	400	7
5	390378	420	8
5	419002	440	6.8888888888889
5	448211	460	6.6666666666667
5	477817	480	8.1111111111111
5	507953	500	5.6
5	538976	520	9.25
5	570994	540	9
5	603414	560	4.9411764705882
5	636567	580	9.4
5	670459	600	7.3636363636364
5	705164	620	4.9375
5	740644	640	5.4117647058824
5	777019	660	7
5	815087	680	7.2
5	854008	700	8.75
5	894145	720	4.6470588235294
5	935965	740	5.75
5	979245	760	9
5	1022777	780	4.7692307692308
5	1067808	800	6.3846153846154
5	1113916	820	4.5
5	1160784	840	6.3571428571429
5	1209202	860	7.4285714285714
5	1258587	880	6.625
5	1309678	900	5.5555555555556
5	1360983	920	6.2727272727273
5	1414239	940	6.5
5	1468750	960	7.4285714285714
5	1524596	980	5
5	1581575	1000	5.8461538461538
5	1640822	1020	8.1
5	1700795	1040	9.2857142857143
5	1762547	1060	5.0555555555556
5	1826108	1080	7.0833333333333
5	1891117	1100	8.25
5	1957129	1120	6.7647058823529
5	2025183	1140	5.5882352941176
5	2094455	1160	6.0555555555556
5	2165891	1180	5.4615384615385
5	2239297	1200	6.5555555555556
5	2315155	1220	7.7857142857143
5	2391970	1240	7.9230769230769
5	2470945	1260	8.4285714285714
5	2551858	1280	7.1428571428571
5	2635411	1300	6.4444444444444
5	2720265	1320	5.1666666666667
5	2807830	1340	7.25
5	2897394	1360	8.4166666666667
5	2989275	1380	5.9411764705882
5	3082740	1400	5.625
5	3178522	1420	7.9230769230769
5	3276090	1440	7.2727272727273
5	3376089	1460	5.55
5	3478256	1480	5.5833333333333
5	3582480	1500	5.4583333333333
5	3690374	1520	6.55
5	3799724	1540	6.2941176470588
5	3911990	1560	7.8666666666667
5	4025620	1580	6.5333333333333
5	4142417	1600	6.5714285714286
5	4261175	1620	7.7857142857143
5	4382163	1640	6.2380952380952
5	4505859	1660	7.3888888888889
5	4631654	1680	8.2307692307692
5	4759490	1700	5.875
5	4889885	1720	7.1111111111111
5	5022332	1740	5.8571428571429
5	5157479	1760	6.6111111111111
5	5295181	1780	8.9
5	5434458	1800	7.1904761904762
5	5577233	1820	7.4117647058824
5	5721893	1840	5.65
5	5868812	1860	8.4615384615385
5	6018473	1880	8.5833333333333
5	6170609	1900	6.9545454545455
5	6324561	1920	7.1176470588235
5	6481162	1940	8.3333333333333
5	6641085	1960	6.6842105263158
5	6803184	1980	7.5
5	6967930	2000	9.0769230769231
6	145025	240	2.8635642126553
6	171034	260	2.0736441353328
6	198243	280	2.2286019533929
6	225382	300	2.9892971474742
6	252933	320	2.3867192066577
6	280266	340	2.0528725518857
6	307432	360	3.1663292667758
6	334844	380	2.0655911179773
6	362587	400	3.2950178841917
6	390378	420	1.7888543819998
6	419002	440	2.2047927592205
6	448211	460	2.0597146021777
6	477817	480	2.5221243250703
6	507953	500	3.4383458555274
6	538976	520	0.70710678118655
6	570994	540	0.57735026918963
6	603414	560	2.7265039023284
6	636567	580	0.54772255750517
6	670459	600	2.6181186861075
6	705164	620	2.2351360883251
6	740644	640	2.5014701559636
6	777019	660	2.7774602993177
6	815087	680	2.7748873851023
6	854008	700	2.0528725518857
6	894145	720	2.8049326299973
6	935965	740	3.1937438845343
6	979245	760	0.75592894601845
6	1022777	780	2.0475125621856
6	1067808	800	2.662657242257
6	1113916	820	2.8518999514943
6	1160784	840	3.1527068432635
6	1209202	860	2.9358214555806
6	1258587	880	2.5787593916455
6	1309678	900	2.0065253028182
6	1360983	920	2.7961011816781
6	1414239	940	2.7080128015453
6	1468750	960	1.7415415679699
6	1524596	980	3.0884399845977
6	1581575	1000	3.1317235362804
6	1640822	1020	2.1317702607093
6	1700795	1040	1.8898223650461
6	1762547	1060	2.7964730354338
6	1826108	1080	2.9374798516395
6	1891117	1100	3.0589447293377
6	1957129	1120	2.8837781590456
6	2025183	1140	3.3922489503538
6	2094455	1160	2.7110280711594
6	2165891	1180	3.2045640529143
6	2239297	1200	2.5946148353447
6	2315155	1220	2.1547290184283
6	2391970	1240	2.1393744592574
6	2470945	1260	1.2224996910043
6	2551858	1280	2.3157368940874
6	2635411	1300	2.7272529212987
6	2720265	1320	2.5724787771376
6	2807830	1340	2.4899799195977
6	2897394	1360	1.9286515936521
6	2989275	1380	2.1929029913363
6	3082740	1400	2.9183328574148
6	3178522	1420	1.7541160386141
6	3276090	1440	2.760105399832
6	3376089	1460	2.9642608025043
6	3478256	1480	2.0412414523193
6	3582480	1500	2.6206399262753
6	3690374	1520	2.502104377477
6	3799724	1540	3.2550865173286
6	3911990	1560	1.684664725723
6	4025620	1580	3.4406533155921
6	4142417	1600	3.0813155460786
6	4261175	1620	2.66540721174
6	4382163	1640	2.467889015024
6	4505859	1660	2.3298293017222
6	4631654	1680	1.5358952955766
6	4759490	1700	2.997281376877
6	4889885	1720	1.9369135207665
6	5022332	1740	3.037856387088
6	5157479	1760	2.8520145385507
6	5295181	1780	0.99442892601175
6	5434458	1800	2.4417012024211
6	5577233	1820	2.31998985799
6	5721893	1840	2.833539724165
6	5868812	1860	2.2588855886397
6	6018473	1880	1.7298624923456
6	6170609	1900	2.6632824846557
6	6324561	1920	2.4719009117776
6	6481162	1940	2.1269248984883
6	6641085	1960	2.7498006307316
6	6803184	1980	2.5649458802129
6	6967930	2000	1.115163550153
7	145025	240	8.2
7	171034	260	4.3
7	198243	280	4.9666666666667
7	225382	300	8.9358974358974
7	252933	320	5.6964285714286
7	280266	340	4.2142857142857
7	307432	360	10.025641025641
7	334844	380	4.2666666666667
7	362587	400	10.857142857143
7	390378	420	3.2
7	419002	440	4.8611111111111
7	448211	460	4.2424242424242
7	477817	480	6.3611111111111
7	507953	500	11.822222222222
7	538976	520	0.5
7	570994	540	0.33333333333333
7	603414	560	7.4338235294118
7	636567	580	0.3
7	670459	600	6.8545454545455
7	705164	620	4.9958333333333
7	740644	640	6.2573529411765
7	777019	660	7.7142857142857
7	815087	680	7.7
7	854008	700	4.2142857142857
7	894145	720	7.8676470588235
7	935965	740	10.2
7	979245	760	0.57142857142857
7	1022777	780	4.1923076923077
7	1067808	800	7.0897435897436
7	1113916	820	8.1333333333333
7	1160784	840	9.9395604395604
7	1209202	860	8.6190476190476
7	1258587	880	6.65
7	1309678	900	4.0261437908497
7	1360983	920	7.8181818181818
7	1414239	940	7.3333333333333
7	1468750	960	3.032967032967
7	1524596	980	9.5384615384615
7	1581575	1000	9.8076923076923
7	1640822	1020	4.5444444444444
7	1700795	1040	3.5714285714286
7	1762547	1060	7.8202614379085
7	1826108	1080	8.6287878787879
7	1891117	1100	9.3571428571429
7	1957129	1120	8.3161764705882
7	2025183	1140	11.507352941176
7	2094455	1160	7.3496732026144
7	2165891	1180	10.269230769231
7	2239297	1200	6.7320261437908
7	2315155	1220	4.6428571428571
7	2391970	1240	4.5769230769231
7	2470945	1260	1.4945054945055
7	2551858	1280	5.3626373626374
7	2635411	1300	7.437908496732
7	2720265	1320	6.6176470588235
7	2807830	1340	6.2
7	2897394	1360	3.719696969697
7	2989275	1380	4.8088235294118
7	3082740	1400	8.5166666666667
7	3178522	1420	3.0769230769231
7	3276090	1440	7.6181818181818
7	3376089	1460	8.7868421052632
7	3478256	1480	4.1666666666667
7	3582480	1500	6.8677536231884
7	3690374	1520	6.2605263157895
7	3799724	1540	10.595588235294
7	3911990	1560	2.8380952380952
7	4025620	1580	11.838095238095
7	4142417	1600	9.4945054945055
7	4261175	1620	7.1043956043956
7	4382163	1640	6.0904761904762
7	4505859	1660	5.4281045751634
7	4631654	1680	2.3589743589744
7	4759490	1700	8.9836956521739
7	4889885	1720	3.7516339869281
7	5022332	1740	9.2285714285714
7	5157479	1760	8.1339869281046
7	5295181	1780	0.98888888888889
7	5434458	1800	5.9619047619048
7	5577233	1820	5.3823529411765
7	5721893	1840	8.0289473684211
7	5868812	1860	5.1025641025641
7	6018473	1880	2.9924242424242
7	6170609	1900	7.0930735930736
7	6324561	1920	6.1102941176471
7	6481162	1940	4.5238095238095
7	6641085	1960	7.5614035087719
7	6803184	1980	6.5789473684211
7	6967930	2000	1.2435897435897
8	145025	240	22.628205128205
8	171034	260	22.627906976744
8	198243	280	22.358695652174
8	225382	300	22.397849462366
8	252933	320	22.410526315789
8	280266	340	22.210526315789
8	307432	360	22.333333333333
8	334844	380	22.425531914894
8	362587	400	22.290322580645
8	390378	420	21.852631578947
8	419002	440	22.25
8	448211	460	22.122448979592
8	477817	480	22.17
8	507953	500	22.21
8	538976	520	22.683168316832
8	570994	540	22.73786407767
8	603414	560	23.103773584906
8	636567	580	23.046728971963
8	670459	600	23.952830188679
8	705164	620	23.490909090909
8	740644	640	24.490909090909
8	777019	660	24.781818181818
8	815087	680	25.297297297297
8	854008	700	25.607142857143
8	894145	720	26.15652173913
8	935965	740	26.615384615385
8	979245	760	27.838983050847
8	1022777	780	27.466101694915
8	1067808	800	27.98347107438
8	1113916	820	28.710743801653
8	1160784	840	28.631147540984
8	1209202	860	28.983606557377
8	1258587	880	29.460317460317
8	1309678	900	30.212598425197
8	1360983	920	30.165354330709
8	1414239	940	30.28125
8	1468750	960	31.434108527132
8	1524596	980	31.206106870229
8	1581575	1000	31.511278195489
8	1640822	1020	32.544776119403
8	1700795	1040	32.984962406015
8	1762547	1060	33.470588235294
8	1826108	1080	33.525179856115
8	1891117	1100	34.630434782609
8	1957129	1120	34.957446808511
8	2025183	1140	35.204225352113
8	2094455	1160	35.697183098592
8	2165891	1180	36.577464788732
8	2239297	1200	37.937062937063
8	2315155	1220	38.296551724138
8	2391970	1240	38.816326530612
8	2470945	1260	38.885906040268
8	2551858	1280	40.163265306122
8	2635411	1300	41.186666666667
8	2720265	1320	41.236842105263
8	2807830	1340	42.209150326797
8	2897394	1360	42.954838709677
8	2989275	1380	43.205128205128
8	3082740	1400	44
8	3178522	1420	45.018987341772
8	3276090	1440	45.41875
8	3376089	1460	46.055555555556
8	3478256	1480	47.031055900621
8	3582480	1500	47.827160493827
8	3690374	1520	48.687116564417
8	3799724	1540	49.4
8	3911990	1560	50.006024096386
8	4025620	1580	50.467065868263
8	4142417	1600	51.065476190476
8	4261175	1620	51.323529411765
8	4382163	1640	51.485549132948
8	4505859	1660	52.421965317919
8	4631654	1680	53.238372093023
8	4759490	1700	53.232954545455
8	4889885	1720	54.176136363636
8	5022332	1740	54.525423728814
8	5157479	1760	55.196629213483
8	5295181	1780	55.021978021978
8	5434458	1800	55.933701657459
8	5577233	1820	56.551912568306
8	5721893	1840	57.005464480874
8	5868812	1860	57.464864864865
8	6018473	1880	58.021390374332
8	6170609	1900	58.627659574468
8	6324561	1920	59.260638297872
8	6481162	1940	59.429319371728
8	6641085	1960	60.140625
8	6803184	1980	60.8125
8	6967930	2000	61.051546391753
9	145025	240	4.2521468202254
9	171034	260	4.7304931010921
9	198243	280	4.5707659726444
9	225382	300	4.3517607254851
9	252933	320	4.7299290104027
9	280266	340	4.3586420314523
9	307432	360	3.9461961137424
9	334844	380	4.231193333547
9	362587	400	4.2772925334316
9	390378	420	4.9227401577469
9	419002	440	4.2426406871193
9	448211	460	3.998106010679
9	477817	480	4.7525750595829
9	507953	500	4.6019209866834
9	538976	520	3.7760579790816
9	570994	540	3.6054456770784
9	603414	560	3.3005893998411
9	636567	580	3.4895617326862
9	670459	600	2.519947374627
9	705164	620	3.6516816649984
9	740644	640	4.0631380617807
9	777019	660	3.5822749631474
9	815087	680	4.235337476292
9	854008	700	5.0872692950451
9	894145	720	5.3714503649988
9	935965	740	6.4978061998755
9	979245	760	6.7873315111644
9	1022777	780	6.6624117234284
9	1067808	800	7.6637495947636
9	1113916	820	7.9471567415952
9	1160784	840	8.0342251573427
9	1209202	860	8.4657634340684
9	1258587	880	8.9734281463894
9	1309678	900	9.3262132035682
9	1360983	920	9.2853902820998
9	1414239	940	9.4050895084213
9	1468750	960	10.524409841857
9	1524596	980	10.375798436192
9	1581575	1000	11.114838935673
9	1640822	1020	11.373769897392
9	1700795	1040	11.718274359984
9	1762547	1060	12.268563365726
9	1826108	1080	13.208654900444
9	1891117	1100	13.810540820902
9	1957129	1120	14.089445056711
9	2025183	1140	14.115299647809
9	2094455	1160	14.644239511632
9	2165891	1180	15.287469463751
9	2239297	1200	16.104070338078
9	2315155	1220	16.80282885324
9	2391970	1240	16.887630395819
9	2470945	1260	17.35150519265
9	2551858	1280	17.480729435396
9	2635411	1300	19.26027544691
9	2720265	1320	19.21531427129
9	2807830	1340	19.556145081726
9	2897394	1360	20.143427897799
9	2989275	1380	20.614031534673
9	3082740	1400	21.576408442414
9	3178522	1420	21.902060956157
9	3276090	1440	22.861483875036
9	3376089	1460	23.113882252772
9	3478256	1480	23.743268088094
9	3582480	1500	23.611393251268
9	3690374	1520	24.860231883247
9	3799724	1540	25.116751770725
9	3911990	1560	25.186936726647
9	4025620	1580	25.999254954834
9	4142417	1600	26.276999774273
9	4261175	1620	26.373647180018
9	4382163	1640	26.635264030197
9	4505859	1660	26.789684379222
9	4631654	1680	27.3041378892
9	4759490	1700	27.057552298086
9	4889885	1720	27.37981944767
9	5022332	1740	27.508896865917
9	5157479	1760	27.917363729642
9	5295181	1780	28.519636744596
9	5434458	1800	27.815583603829
9	5577233	1820	28.727141589521
9	5721893	1840	29.015815556227
9	5868812	1860	29.497975393091
9	6018473	1880	29.679100430396
9	6170609	1900	29.846661255089
9	6324561	1920	30.282116351295
9	6481162	1940	30.245904099522
9	6641085	1960	30.975518379429
9	6803184	1980	30.741895454341
9	6967930	2000	31.459117687551
10	145025	240	18.080752580753
10	171034	260	22.37756497948
10	198243	280	20.891901576684
10	225382	300	18.937821411875
10	252933	320	22.372228443449
10	280266	340	18.997760358343
10	307432	360	15.572463768116
10	334844	380	17.902997025852
10	362587	400	18.29523141655
10	390378	420	24.233370660694
10	419002	440	18
10	448211	460	15.984851672628
10	477817	480	22.58696969697
10	507953	500	21.177676767677
10	538976	520	14.258613861386
10	570994	540	12.999238530364
10	603414	560	10.893890386343
10	636567	580	12.177041086228
10	670459	600	6.3501347708895
10	705164	620	13.334778982485
10	740644	640	16.509090909091
10	777019	660	12.832693911593
10	815087	680	17.938083538084
10	854008	700	25.880308880309
10	894145	720	28.852479023646
10	935965	740	42.221485411141
10	979245	760	46.067869042445
10	1022777	780	44.387729972476
10	1067808	800	58.73305785124
10	1113916	820	63.157300275482
10	1160784	840	64.548773878878
10	1209202	860	71.66915052161
10	1258587	880	80.522412698413
10	1309678	900	86.97825271841
10	1360983	920	86.218472690914
10	1414239	940	88.455708661417
10	1468750	960	110.76320251938
10	1524596	980	107.65719318849
10	1581575	1000	123.53964456596
10	1640822	1020	129.36264167882
10	1700795	1040	137.31795397585
10	1762547	1060	150.51764705882
10	1826108	1080	174.46856427901
10	1891117	1100	190.73103776579
10	1957129	1120	198.51246200608
10	2025183	1140	199.24168414744
10	2094455	1160	214.45375087404
10	2165891	1180	233.70672260513
10	2239297	1200	259.34108145376
10	2315155	1220	282.33505747126
10	2391970	1240	285.1920603858
10	2470945	1260	301.07473245057
10	2551858	1280	305.57590159351
10	2635411	1300	370.95821029083
10	2720265	1320	369.22830254444
10	2807830	1340	382.44281045752
10	2897394	1360	405.75768747382
10	2989275	1380	424.93829611249
10	3082740	1400	465.54140127389
10	3178522	1420	479.70027412723
10	3276090	1440	522.64744496855
10	3376089	1460	534.25155279503
10	3478256	1480	563.74277950311
10	3582480	1500	557.49789126601
10	3690374	1520	618.0311292888
10	3799724	1540	630.8512195122
10	3911990	1560	634.38178167214
10	4025620	1580	675.96125820648
10	4142417	1600	690.48071713715
10	4261175	1620	695.56926557605
10	4382163	1640	709.43728995833
10	4505859	1660	717.68718913833
10	4631654	1680	745.51594587243
10	4759490	1700	732.11113636364
10	4889885	1720	749.65451298701
10	5022332	1740	756.73940677966
10	5157479	1760	779.37919761315
10	5295181	1780	813.36968004371
10	5434458	1800	773.70669122161
10	5577233	1820	825.2486639044
10	5721893	1840	841.91755239296
10	5868812	1860	870.13055229142
10	6018473	1880	880.84900235754
10	6170609	1900	890.823188076
10	6324561	1920	917.00657071339
10	6481162	1940	914.81471479746
10	6641085	1960	959.48273887435
10	6803184	1980	945.06413612565
10	6967930	2000	989.67608567918
11	145025	240	232.28374070069
11	171034	260	275.16120239737
11	198243	280	279.36048978853
11	225382	300	615.2918128658
11	252933	320	374.55641311
11	280266	340	373.34922656822
11	307432	360	620.40187334415
11	334844	380	471.78775115365
11	362587	400	369.24764366257
11	390378	420	276.87165215367
11	419002	440	421.44738679726
11	448211	460	559.38776655861
11	477817	480	428.46906683238
11	507953	500	474.19695163857
11	538976	520	375.45129150176
11	570994	540	324.10405189106
11	603414	560	821.52957596915
11	636567	580	235.80526938874
11	670459	600	520.91308697568
11	705164	620	762.81481383053
11	740644	640	812.17154554541
11	777019	660	390.96390398416
11	815087	680	243.33349652768
11	854008	700	376.5464066018
11	894145	720	811.40830154538
11	935965	740	757.20346949188
11	979245	760	380.80643243036
11	1022777	780	632.5255881773
11	1067808	800	632.52694729718
11	1113916	820	779.11860010552
11	1160784	840	662.31910390528
11	1209202	860	336.83849507159
11	1258587	880	762.80513770215
11	1309678	900	869.19452705042
11	1360983	920	520.74379156977
11	1414239	940	763.59289430586
11	1468750	960	660.08872379015
11	1524596	980	678.05575229769
11	1581575	1000	638.46182219665
11	1640822	1020	483.5712403215
11	1700795	1040	338.57259021912
11	1762547	1060	867.09343510297
11	1826108	1080	578.84628575047
11	1891117	1100	385.40078290847
11	1957129	1120	810.59518171553
11	2025183	1140	816.05181617403
11	2094455	1160	855.72616023758
11	2165891	1180	609.50669198744
11	2239297	1200	873.12434372811
11	2315155	1220	675.19218462411
11	2391970	1240	630.40331662125
11	2470945	1260	669.66894899666
11	2551858	1280	672.85407552515
11	2635411	1300	856.18071055557
11	2720265	1320	875.83155299608
11	2807830	1340	777.90656231124
11	2897394	1360	577.98650593261
11	2989275	1380	815.27429286782
11	3082740	1400	793.88430928598
11	3178522	1420	622.88693238105
11	3276090	1440	529.64572108542
11	3376089	1460	971.52606220262
11	3478256	1480	1170.8931671068
11	3582480	1500	1195.8250140262
11	3690374	1520	976.42384687379
11	3799724	1540	839.4440533994
11	3911990	1560	719.99769319043
11	4025620	1580	713.70141575496
11	4142417	1600	685.26433201717
11	4261175	1620	685.40210179362
11	4382163	1640	1031.7658623085
11	4505859	1660	865.70157199939
11	4631654	1680	626.93727186843
11	4759490	1700	1166.5619784804
11	4889885	1720	868.17298922894
11	5022332	1740	1020.3742911474
11	5157479	1760	883.03438606747
11	5295181	1780	492.13759865417
11	5434458	1800	1019.9301516988
11	5577233	1820	819.00781201586
11	5721893	1840	981.14222609925
11	5868812	1860	640.81371943852
11	6018473	1880	584.04350613992
11	6170609	1900	1062.2888899004
11	6324561	1920	827.14932569945
11	6481162	1940	718.80499048761
11	6641085	1960	917.27000811047
11	6803184	1980	970.74880317379
11	6967930	2000	634.95213697154
12	145025	240	46.456748140139
12	171034	260	45.860200399562
12	198243	280	46.560081631422
12	225382	300	47.330139451216
12	252933	320	46.81955163875
12	280266	340	46.668653321028
12	307432	360	47.723221026473
12	334844	380	47.178775115365
12	362587	400	46.155955457822
12	390378	420	46.145275358945
12	419002	440	46.827487421918
12	448211	460	46.615647213217
12	477817	480	47.607674092487
12	507953	500	47.419695163857
12	538976	520	46.93141143772
12	570994	540	46.300578841581
12	603414	560	48.325269174656
12	636567	580	47.161053877748
12	670459	600	47.355735179608
12	705164	620	47.675925864408
12	740644	640	47.774796796789
12	777019	660	48.870487998021
12	815087	680	48.666699305536
12	854008	700	47.068300825224
12	894145	720	47.729900090905
12	935965	740	47.325216843242
12	979245	760	47.600804053795
12	1022777	780	48.655814475177
12	1067808	800	48.65591902286
12	1113916	820	48.694912506595
12	1160784	840	47.308507421805
12	1209202	860	48.119785010227
12	1258587	880	47.675321106385
12	1309678	900	48.288584836134
12	1360983	920	47.340344688161
12	1414239	940	47.724555894116
12	1468750	960	47.14919455644
12	1524596	980	48.432553735549
12	1581575	1000	49.112447861281
12	1640822	1020	48.35712403215
12	1700795	1040	48.367512888446
12	1762547	1060	48.171857505721
12	1826108	1080	48.237190479206
12	1891117	1100	48.175097863559
12	1957129	1120	47.682069512678
12	2025183	1140	48.003048010237
12	2094455	1160	47.540342235421
12	2165891	1180	46.88513015288
12	2239297	1200	48.506907984895
12	2315155	1220	48.228013187436
12	2391970	1240	48.492562817019