version 2
run statisticRVV-9-20150327-01:33:41-13924
attr c 14
attr configname statisticRVV
attr datetime 20150327-01:33:41
attr experiment statisticRVV
attr inifile omnetpp.ini
attr iterationvars "$sc=\"erlangen-low.launchd.xml\", $p=1/15, $c=14"
attr iterationvars2 "$sc=\"erlangen-low.launchd.xml\", $p=1/15, $c=14, $repetition=9"
attr measurement "$sc=\"erlangen-low.launchd.xml\", $p=1/15, $c=14"
attr network RSUExampleScenario
attr p 1/15
attr processid 13924
attr repetition 9
attr replication #9
attr resultdir results
attr runnumber 9
attr sc "\"erlangen-low.launchd.xml\""
attr seedset 9

vector 0  RSUExampleScenario.rsu[0].appl  Number_CH  ETV
vector 1  RSUExampleScenario.rsu[0].appl  Number_ON  ETV
vector 2  RSUExampleScenario.rsu[0].appl  Number_FN  ETV
vector 3  RSUExampleScenario.rsu[0].appl  Number_CH_Losts  ETV
vector 4  RSUExampleScenario.rsu[0].appl  Number_CH_Losts  ETV
vector 5  RSUExampleScenario.rsu[0].appl  Mean_Cluster_Size  ETV
vector 6  RSUExampleScenario.rsu[0].appl  StdDev_Cluster_Size  ETV
vector 7  RSUExampleScenario.rsu[0].appl  Variance_Cluster_Size  ETV
vector 8  RSUExampleScenario.rsu[0].appl  Mean_Neighbors  ETV
vector 9  RSUExampleScenario.rsu[0].appl  StdDev_Neighbors  ETV
vector 10  RSUExampleScenario.rsu[0].appl  Variance_Neighbors  ETV
vector 11  RSUExampleScenario.rsu[0].appl  Total_CH_Utility  ETV
vector 12  RSUExampleScenario.rsu[0].appl  Mean_CH_Utility  ETV
vector 13  RSUExampleScenario.rsu[0].appl  StdDev_CH_Utility  ETV
vector 14  RSUExampleScenario.rsu[0].appl  Variance_CH_Utility  ETV
vector 15  RSUExampleScenario.rsu[0].appl  Total_exp_CH_Utility  ETV
vector 16  RSUExampleScenario.rsu[0].appl  Mean_exp_CH_Utility  ETV
vector 17  RSUExampleScenario.rsu[0].appl  StdDev_exp_CH_Utility  ETV
vector 18  RSUExampleScenario.rsu[0].appl  Variance_exp_CH_Utility  ETV
vector 19  RSUExampleScenario.rsu[0].appl  Total_ON_Utility  ETV
vector 20  RSUExampleScenario.rsu[0].appl  Mean_ON_Utility  ETV
vector 21  RSUExampleScenario.rsu[0].appl  StdDev_ON_Utility  ETV
vector 22  RSUExampleScenario.rsu[0].appl  Variance_ON_Utility  ETV
vector 23  RSUExampleScenario.rsu[0].appl  Total_exp_ON_Utility  ETV
vector 24  RSUExampleScenario.rsu[0].appl  Mean_exp_ON_Utility  ETV
vector 25  RSUExampleScenario.rsu[0].appl  StdDev_exp_ON_Utility  ETV
vector 26  RSUExampleScenario.rsu[0].appl  Variance_exp_ON_Utility  ETV
0	34608	240	5
0	39768	260	2
0	45002	280	6
0	50183	300	2
0	55589	320	2
0	60922	340	2
0	66187	360	2
0	71542	380	4
0	76809	400	2
0	82132	420	1
0	87526	440	2
0	92836	460	0
0	98148	480	2
0	103428	500	0
0	108742	520	3
0	114035	540	2
0	119376	560	2
0	124801	580	2
0	130099	600	4
0	135332	620	5
0	140609	640	2
0	145798	660	2
0	151029	680	4
0	156309	700	3
0	161607	720	3
0	166858	740	2
0	172125	760	2
0	177431	780	3
0	182855	800	1
0	188167	820	3
0	193533	840	3
0	198864	860	0
0	204160	880	6
0	209498	900	1
0	214873	920	3
0	220218	940	3
0	225659	960	6
0	230856	980	4
0	236223	1000	2
0	241502	1020	1
0	246703	1040	1
0	252053	1060	1
0	257325	1080	2
0	262662	1100	3
0	267912	1120	4
0	273250	1140	1
0	278539	1160	2
0	283827	1180	5
0	289148	1200	1
0	294487	1220	3
0	299767	1240	5
0	305088	1260	2
0	310342	1280	5
0	315675	1300	0
0	321010	1320	1
0	326255	1340	1
0	331617	1360	1
0	336994	1380	3
0	342270	1400	5
0	347589	1420	3
0	352989	1440	3
0	358174	1460	5
0	363503	1480	4
0	368773	1500	3
0	374037	1520	1
0	379377	1540	6
0	384650	1560	3
0	389882	1580	2
0	395194	1600	6
0	400379	1620	3
0	405617	1640	3
0	411037	1660	2
0	416410	1680	3
0	421716	1700	3
0	427002	1720	3
0	432337	1740	1
0	437603	1760	2
0	442808	1780	0
0	448054	1800	6
0	452997	1820	0
0	457374	1840	5
0	461191	1860	1
0	464545	1880	2
0	467529	1900	1
0	470032	1920	1
0	472092	1940	1
0	473705	1960	1
0	474733	1980	0
0	475366	2000	0
1	34608	240	18
1	39768	260	10
1	45002	280	16
1	50183	300	7
1	55589	320	5
1	60922	340	10
1	66187	360	9
1	71542	380	14
1	76809	400	4
1	82132	420	10
1	87526	440	13
1	92836	460	0
1	98148	480	10
1	103428	500	0
1	108742	520	15
1	114035	540	6
1	119376	560	13
1	124801	580	8
1	130099	600	13
1	135332	620	11
1	140609	640	6
1	145798	660	3
1	151029	680	14
1	156309	700	12
1	161607	720	10
1	166858	740	8
1	172125	760	9
1	177431	780	13
1	182855	800	7
1	188167	820	8
1	193533	840	9
1	198864	860	0
1	204160	880	19
1	209498	900	3
1	214873	920	4
1	220218	940	3
1	225659	960	24
1	230856	980	12
1	236223	1000	9
1	241502	1020	1
1	246703	1040	5
1	252053	1060	4
1	257325	1080	12
1	262662	1100	12
1	267912	1120	10
1	273250	1140	6
1	278539	1160	8
1	283827	1180	13
1	289148	1200	2
1	294487	1220	15
1	299767	1240	15
1	305088	1260	2
1	310342	1280	19
1	315675	1300	0
1	321010	1320	6
1	326255	1340	5
1	331617	1360	7
1	336994	1380	16
1	342270	1400	20
1	347589	1420	9
1	352989	1440	5
1	358174	1460	14
1	363503	1480	10
1	368773	1500	4
1	374037	1520	2
1	379377	1540	19
1	384650	1560	11
1	389882	1580	10
1	395194	1600	13
1	400379	1620	8
1	405617	1640	8
1	411037	1660	11
1	416410	1680	5
1	421716	1700	12
1	427002	1720	7
1	432337	1740	4
1	437603	1760	4
1	442808	1780	0
1	448054	1800	23
1	452997	1820	0
1	457374	1840	17
1	461191	1860	3
1	464545	1880	8
1	467529	1900	3
1	470032	1920	2
1	472092	1940	2
1	473705	1960	3
1	474733	1980	0
1	475366	2000	0
2	34608	240	17
2	39768	260	28
2	45002	280	18
2	50183	300	30
2	55589	320	33
2	60922	340	27
2	66187	360	30
2	71542	380	22
2	76809	400	34
2	82132	420	29
2	87526	440	26
2	92836	460	40
2	98148	480	29
2	103428	500	39
2	108742	520	22
2	114035	540	32
2	119376	560	25
2	124801	580	31
2	130099	600	23
2	135332	620	23
2	140609	640	33
2	145798	660	35
2	151029	680	23
2	156309	700	25
2	161607	720	27
2	166858	740	30
2	172125	760	29
2	177431	780	24
2	182855	800	32
2	188167	820	29
2	193533	840	29
2	198864	860	40
2	204160	880	15
2	209498	900	36
2	214873	920	34
2	220218	940	35
2	225659	960	11
2	230856	980	23
2	236223	1000	29
2	241502	1020	37
2	246703	1040	33
2	252053	1060	36
2	257325	1080	27
2	262662	1100	27
2	267912	1120	26
2	273250	1140	34
2	278539	1160	31
2	283827	1180	23
2	289148	1200	37
2	294487	1220	22
2	299767	1240	20
2	305088	1260	36
2	310342	1280	15
2	315675	1300	40
2	321010	1320	34
2	326255	1340	34
2	331617	1360	32
2	336994	1380	21
2	342270	1400	16
2	347589	1420	27
2	352989	1440	32
2	358174	1460	20
2	363503	1480	26
2	368773	1500	33
2	374037	1520	37
2	379377	1540	17
2	384650	1560	26
2	389882	1580	27
2	395194	1600	20
2	400379	1620	28
2	405617	1640	29
2	411037	1660	27
2	416410	1680	33
2	421716	1700	25
2	427002	1720	30
2	432337	1740	35
2	437603	1760	34
2	442808	1780	41
2	448054	1800	10
2	452997	1820	37
2	457374	1840	12
2	461191	1860	26
2	464545	1880	17
2	467529	1900	20
2	470032	1920	18
2	472092	1940	15
2	473705	1960	11
2	474733	1980	10
2	475366	2000	8
3	34608	240	0
3	39768	260	0
3	45002	280	0
3	50183	300	0
3	55589	320	0
3	60922	340	0
3	66187	360	0
3	71542	380	0
3	76809	400	0
3	82132	420	0
3	87526	440	0
3	92836	460	1
3	98148	480	0
3	103428	500	0
3	108742	520	0
3	114035	540	0
3	119376	560	0
3	124801	580	0
3	130099	600	0
3	135332	620	0
3	140609	640	0
3	145798	660	0
3	151029	680	1
3	156309	700	0
3	161607	720	0
3	166858	740	0
3	172125	760	0
3	177431	780	0
3	182855	800	0
3	188167	820	0
3	193533	840	0
3	198864	860	0
3	204160	880	0
3	209498	900	0
3	214873	920	1
3	220218	940	1
3	225659	960	0
3	230856	980	1
3	236223	1000	1
3	241502	1020	0
3	246703	1040	0
3	252053	1060	0
3	257325	1080	0
3	262662	1100	0
3	267912	1120	1
3	273250	1140	0
3	278539	1160	0
3	283827	1180	0
3	289148	1200	0
3	294487	1220	0
3	299767	1240	0
3	305088	1260	1
3	310342	1280	0
3	315675	1300	0
3	321010	1320	0
3	326255	1340	0
3	331617	1360	0
3	336994	1380	0
3	342270	1400	1
3	347589	1420	1
3	352989	1440	1
3	358174	1460	1
3	363503	1480	1
3	368773	1500	0
3	374037	1520	0
3	379377	1540	0
3	384650	1560	0
3	389882	1580	0
3	395194	1600	1
3	400379	1620	0
3	405617	1640	0
3	411037	1660	1
3	416410	1680	1
3	421716	1700	0
3	427002	1720	0
3	432337	1740	0
3	437603	1760	0
3	442808	1780	0
3	448054	1800	0
3	452997	1820	0
3	457374	1840	1
3	461191	1860	0
3	464545	1880	0
3	467529	1900	0
3	470032	1920	0
3	472092	1940	0
3	473705	1960	0
3	474733	1980	0
3	475366	2000	0
4	34608	240	17
4	39768	260	28
4	45002	280	17
4	50183	300	30
4	55589	320	33
4	60922	340	26
4	66187	360	29
4	71542	380	22
4	76809	400	34
4	82132	420	29
4	87526	440	25
4	92836	460	39
4	98148	480	29
4	103428	500	39
4	108742	520	22
4	114035	540	32
4	119376	560	25
4	124801	580	29
4	130099	600	23
4	135332	620	23
4	140609	640	33
4	145798	660	35
4	151029	680	22
4	156309	700	25
4	161607	720	27
4	166858	740	30
4	172125	760	29
4	177431	780	24
4	182855	800	32
4	188167	820	29
4	193533	840	29
4	198864	860	40
4	204160	880	15
4	209498	900	36
4	214873	920	33
4	220218	940	34
4	225659	960	11
4	230856	980	22
4	236223	1000	27
4	241502	1020	37
4	246703	1040	33
4	252053	1060	36
4	257325	1080	27
4	262662	1100	26
4	267912	1120	25
4	273250	1140	33
4	278539	1160	31
4	283827	1180	23
4	289148	1200	37
4	294487	1220	22
4	299767	1240	20
4	305088	1260	35
4	310342	1280	15
4	315675	1300	40
4	321010	1320	34
4	326255	1340	34
4	331617	1360	32
4	336994	1380	20
4	342270	1400	15
4	347589	1420	25
4	352989	1440	31
4	358174	1460	19
4	363503	1480	25
4	368773	1500	33
4	374037	1520	36
4	379377	1540	16
4	384650	1560	26
4	389882	1580	27
4	395194	1600	19
4	400379	1620	28
4	405617	1640	29
4	411037	1660	26
4	416410	1680	32
4	421716	1700	25
4	427002	1720	30
4	432337	1740	35
4	437603	1760	34
4	442808	1780	40
4	448054	1800	10
4	452997	1820	37
4	457374	1840	11
4	461191	1860	26
4	464545	1880	17
4	467529	1900	20
4	470032	1920	18
4	472092	1940	15
4	473705	1960	11
4	474733	1980	10
4	475366	2000	8
5	34608	240	3.6
5	39768	260	5
5	45002	280	2.6666666666667
5	50183	300	3.5
5	55589	320	2.5
5	60922	340	5
5	66187	360	4.5
5	71542	380	3.5
5	76809	400	2
5	82132	420	10
5	87526	440	6.5
5	92836	460	nan
5	98148	480	5
5	103428	500	nan
5	108742	520	5
5	114035	540	3
5	119376	560	6.5
5	124801	580	4
5	130099	600	3.25
5	135332	620	2.2
5	140609	640	3
5	145798	660	1.5
5	151029	680	3.5
5	156309	700	4
5	161607	720	3.3333333333333
5	166858	740	4
5	172125	760	4.5
5	177431	780	4.3333333333333
5	182855	800	7
5	188167	820	2.6666666666667
5	193533	840	3
5	198864	860	nan
5	204160	880	3.1666666666667
5	209498	900	3
5	214873	920	1.3333333333333
5	220218	940	1
5	225659	960	4
5	230856	980	3
5	236223	1000	4.5
5	241502	1020	1
5	246703	1040	5
5	252053	1060	4
5	257325	1080	6
5	262662	1100	4
5	267912	1120	2.5
5	273250	1140	6
5	278539	1160	4
5	283827	1180	2.6
5	289148	1200	2
5	294487	1220	5
5	299767	1240	3
5	305088	1260	1
5	310342	1280	3.8
5	315675	1300	nan
5	321010	1320	6
5	326255	1340	5
5	331617	1360	7
5	336994	1380	5.3333333333333
5	342270	1400	4
5	347589	1420	3
5	352989	1440	1.6666666666667
5	358174	1460	2.8
5	363503	1480	2.5
5	368773	1500	1.3333333333333
5	374037	1520	2
5	379377	1540	3.1666666666667
5	384650	1560	3.6666666666667
5	389882	1580	5
5	395194	1600	2.1666666666667
5	400379	1620	2.6666666666667
5	405617	1640	2.6666666666667
5	411037	1660	5.5
5	416410	1680	1.6666666666667
5	421716	1700	4
5	427002	1720	2.3333333333333
5	432337	1740	4
5	437603	1760	2
5	442808	1780	nan
5	448054	1800	3.8333333333333
5	452997	1820	nan
5	457374	1840	3.4
5	461191	1860	3
5	464545	1880	4
5	467529	1900	3
5	470032	1920	2
5	472092	1940	2
5	473705	1960	3
5	474733	1980	nan
5	475366	2000	nan
6	34608	240	2.6076809620811
6	39768	260	2.8284271247462
6	45002	280	1.8618986725025
6	50183	300	2.1213203435596
6	55589	320	0.70710678118655
6	60922	340	4.2426406871193
6	66187	360	4.9497474683058
6	71542	380	3.1091263510296
6	76809	400	0
6	82132	420	nan
6	87526	440	3.5355339059327
6	92836	460	nan
6	98148	480	2.8284271247462
6	103428	500	nan
6	108742	520	3.4641016151378
6	114035	540	1.4142135623731
6	119376	560	2.1213203435596
6	124801	580	1.4142135623731
6	130099	600	0.95742710775634
6	135332	620	0.83666002653408
6	140609	640	1.4142135623731
6	145798	660	0.70710678118655
6	151029	680	2.5166114784236
6	156309	700	2.6457513110646
6	161607	720	2.5166114784236
6	166858	740	2.8284271247462
6	172125	760	3.5355339059327
6	177431	780	2.5166114784236
6	182855	800	nan
6	188167	820	1.1547005383793
6	193533	840	1.7320508075689
6	198864	860	nan
6	204160	880	1.8348478592697
6	209498	900	nan
6	214873	920	0.57735026918963
6	220218	940	0
6	225659	960	2.8284271247462
6	230856	980	0.81649658092773
6	236223	1000	0.70710678118655
6	241502	1020	nan
6	246703	1040	nan
6	252053	1060	nan
6	257325	1080	1.4142135623731
6	262662	1100	2
6	267912	1120	1.7320508075689
6	273250	1140	nan
6	278539	1160	2.8284271247462
6	283827	1180	0.54772255750517
6	289148	1200	nan
6	294487	1220	3
6	299767	1240	1.2247448713916
6	305088	1260	0
6	310342	1280	2.1679483388679
6	315675	1300	nan
6	321010	1320	nan
6	326255	1340	nan
6	331617	1360	nan
6	336994	1380	2.3094010767585
6	342270	1400	2.3452078799117
6	347589	1420	2
6	352989	1440	0.57735026918963
6	358174	1460	2.0493901531919
6	363503	1480	1.2909944487358
6	368773	1500	0.57735026918963
6	374037	1520	nan
6	379377	1540	2.4832774042919
6	384650	1560	3.0550504633039
6	389882	1580	4.2426406871193
6	395194	1600	1.16904519445
6	400379	1620	0.57735026918963
6	405617	1640	0.57735026918963
6	411037	1660	0.70710678118655
6	416410	1680	0.57735026918963
6	421716	1700	2.6457513110646
6	427002	1720	1.5275252316519
6	432337	1740	nan
6	437603	1760	0
6	442808	1780	nan
6	448054	1800	2.1369760566433
6	452997	1820	nan
6	457374	1840	2.1908902300207
6	461191	1860	nan
6	464545	1880	2.8284271247462
6	467529	1900	nan
6	470032	1920	nan
6	472092	1940	nan
6	473705	1960	nan
6	474733	1980	nan
6	475366	2000	nan
7	34608	240	6.8
7	39768	260	8
7	45002	280	3.4666666666667
7	50183	300	4.5
7	55589	320	0.5
7	60922	340	18
7	66187	360	24.5
7	71542	380	9.6666666666667
7	76809	400	0
7	82132	420	nan
7	87526	440	12.5
7	92836	460	nan
7	98148	480	8
7	103428	500	nan
7	108742	520	12
7	114035	540	2
7	119376	560	4.5
7	124801	580	2
7	130099	600	0.91666666666667
7	135332	620	0.7
7	140609	640	2
7	145798	660	0.5
7	151029	680	6.3333333333333
7	156309	700	7
7	161607	720	6.3333333333333
7	166858	740	8
7	172125	760	12.5
7	177431	780	6.3333333333333
7	182855	800	nan
7	188167	820	1.3333333333333
7	193533	840	3
7	198864	860	nan
7	204160	880	3.3666666666667
7	209498	900	nan
7	214873	920	0.33333333333333
7	220218	940	0
7	225659	960	8
7	230856	980	0.66666666666667
7	236223	1000	0.5
7	241502	1020	nan
7	246703	1040	nan
7	252053	1060	nan
7	257325	1080	2
7	262662	1100	4
7	267912	1120	3
7	273250	1140	nan
7	278539	1160	8
7	283827	1180	0.3
7	289148	1200	nan
7	294487	1220	9
7	299767	1240	1.5
7	305088	1260	0
7	310342	1280	4.7
7	315675	1300	nan
7	321010	1320	nan
7	326255	1340	nan
7	331617	1360	nan
7	336994	1380	5.3333333333333
7	342270	1400	5.5
7	347589	1420	4
7	352989	1440	0.33333333333333
7	358174	1460	4.2
7	363503	1480	1.6666666666667
7	368773	1500	0.33333333333333
7	374037	1520	nan
7	379377	1540	6.1666666666667
7	384650	1560	9.3333333333333
7	389882	1580	18
7	395194	1600	1.3666666666667
7	400379	1620	0.33333333333333
7	405617	1640	0.33333333333333
7	411037	1660	0.5
7	416410	1680	0.33333333333333
7	421716	1700	7
7	427002	1720	2.3333333333333
7	432337	1740	nan
7	437603	1760	0
7	442808	1780	nan
7	448054	1800	4.5666666666667
7	452997	1820	nan
7	457374	1840	4.8
7	461191	1860	nan
7	464545	1880	8
7	467529	1900	nan
7	470032	1920	nan
7	472092	1940	nan
7	473705	1960	nan
7	474733	1980	nan
7	475366	2000	nan
8	34608	240	8.925
8	39768	260	8.975
8	45002	280	9.0769230769231
8	50183	300	9.0512820512821
8	55589	320	9.125
8	60922	340	9.3157894736842
8	66187	360	9.025
8	71542	380	8.825
8	76809	400	9.175
8	82132	420	9.15
8	87526	440	9.15
8	92836	460	8.875
8	98148	480	8.9024390243902
8	103428	500	9.0512820512821
8	108742	520	9.05
8	114035	540	8.775
8	119376	560	9.05
8	124801	580	9.2307692307692
8	130099	600	8.9
8	135332	620	8.8205128205128
8	140609	640	8.6829268292683
8	145798	660	8.9
8	151029	680	8.9756097560976
8	156309	700	8.825
8	161607	720	8.8
8	166858	740	8.75
8	172125	760	8.95
8	177431	780	9.2
8	182855	800	8.975
8	188167	820	8.9
8	193533	840	8.8536585365854
8	198864	860	8.95
8	204160	880	8.95
8	209498	900	8.95
8	214873	920	8.9024390243902
8	220218	940	9.0975609756098
8	225659	960	9.0243902439024
8	230856	980	8.8974358974359
8	236223	1000	9.2051282051282
8	241502	1020	9.1794871794872
8	246703	1040	9
8	252053	1060	8.6341463414634
8	257325	1080	8.7560975609756
8	262662	1100	8.9512195121951
8	267912	1120	8.95
8	273250	1140	9.05
8	278539	1160	8.8048780487805
8	283827	1180	9.0487804878049
8	289148	1200	8.875
8	294487	1220	8.925
8	299767	1240	8.775
8	305088	1260	8.875
8	310342	1280	8.9230769230769
8	315675	1300	9.175
8	321010	1320	8.780487804878
8	326255	1340	8.75
8	331617	1360	8.95
8	336994	1380	9.2051282051282
8	342270	1400	8.9024390243902
8	347589	1420	9.3684210526316
8	352989	1440	8.85
8	358174	1460	8.9487179487179
8	363503	1480	8.775
8	368773	1500	8.8
8	374037	1520	9.0769230769231
8	379377	1540	8.8780487804878
8	384650	1560	9.075
8	389882	1580	9.025641025641
8	395194	1600	9.1025641025641
8	400379	1620	8.8974358974359
8	405617	1640	8.95
8	411037	1660	8.825
8	416410	1680	8.9756097560976
8	421716	1700	9
8	427002	1720	8.875
8	432337	1740	9.175
8	437603	1760	8.9
8	442808	1780	9.1
8	448054	1800	9.025641025641
8	452997	1820	8.8108108108108
8	457374	1840	8.5294117647059
8	461191	1860	8.4666666666667
8	464545	1880	8.5555555555556
8	467529	1900	8.4166666666667
8	470032	1920	8.3809523809524
8	472092	1940	7.8333333333333
8	473705	1960	7.1333333333333
8	474733	1980	6.4
8	475366	2000	5.125
9	34608	240	1.8451252476423
9	39768	260	1.2086759019263
9	45002	280	1.5455303192145
9	50183	300	1.6535244328199
9	55589	320	1.9373190568941
9	60922	340	1.4162238172078
9	66187	360	1.3865193462177
9	71542	380	1.6929340332764
9	76809	400	1.5340160130211
9	82132	420	1.6725537053966
9	87526	440	1.2310095919141
9	92836	460	1.7858058584579
9	98148	480	1.9468548745192
9	103428	500	1.413258980042
9	108742	520	1.9735429549092
9	114035	540	1.7466084351225
9	119376	560	1.9341731155782
9	124801	580	1.4772224730276
9	130099	600	1.6610160622265
9	135332	620	1.8619711523543
9	140609	640	1.7383760293769
9	145798	660	1.3549529275578
9	151029	680	1.8505108062107
9	156309	700	1.4302142568555
9	161607	720	1.4710889042143
9	166858	740	2.0724072463857
9	172125	760	1.5681117176319
9	177431	780	1.5721942856387
9	182855	800	1.8740809713509
9	188167	820	1.6298497649815
9	193533	840	2.0923787373436
9	198864	860	1.6004806970215
9	204160	880	1.431334324579
9	209498	900	1.9735429549092
9	214873	920	1.6553682075113
9	220218	940	1.7292321713521
9	225659	960	1.5730194671085
9	230856	980	1.586038955433
9	236223	1000	2.0154598166683
9	241502	1020	1.6201331146057
9	246703	1040	1.3572417850766
9	252053	1060	2.0464126851759
9	257325	1080	1.7432797796808
9	262662	1100	1.9868469935075
9	267912	1120	1.738699779455
9	273250	1140	1.738699779455
9	278539	1160	1.7061581432435
9	283827	1180	1.6271327467695
9	289148	1200	1.9106650741669
9	294487	1220	2.0925692709791
9	299767	1240	1.3298833571369
9	305088	1260	1.7274184087749
9	310342	1280	1.4213524949778
9	315675	1300	1.6929340332764
9	321010	1320	1.8508402837894
9	326255	1340	1.5972733176517
9	331617	1360	1.5843788720683
9	336994	1380	1.2178386199261
9	342270	1400	1.7861253882186
9	347589	1420	1.5669052409573
9	352989	1440	1.9421109318973
9	358174	1460	1.6375321282299
9	363503	1480	1.8043750249794
9	368773	1500	1.6824889987067
9	374037	1520	1.8408324116039
9	379377	1540	1.4696108660326
9	384650	1560	1.6700606468337
9	389882	1580	1.5472756956253
9	395194	1600	1.8889550410474
9	400379	1620	1.6826494114447
9	405617	1640	1.8250395148515
9	411037	1660	2.0741077785214
9	416410	1680	2.0185118884719
9	421716	1700	1.6329931618555
9	427002	1720	1.6822984887136
9	432337	1740	1.6777197590014
9	437603	1760	1.481509971236
9	442808	1780	1.6455067024149
9	448054	1800	1.8846635814157
9	452997	1820	1.5426859304084
9	457374	1840	1.5022265115417
9	461191	1860	1.5916448515084
9	464545	1880	1.8257418583506
9	467529	1900	1.8630658852423
9	470032	1920	1.5321941938341
9	472092	1940	1.4245742398015
9	473705	1960	1.8847761013927
9	474733	1980	1.0749676997731
9	475366	2000	0.99103120896511
10	34608	240	3.4044871794872
10	39768	260	1.4608974358974
10	45002	280	2.3886639676113
10	50183	300	2.7341430499325
10	55589	320	3.7532051282051
10	60922	340	2.0056899004267
10	66187	360	1.9224358974359
10	71542	380	2.8660256410256
10	76809	400	2.3532051282051
10	82132	420	2.7974358974359
10	87526	440	1.5153846153846
10	92836	460	3.1891025641026
10	98148	480	3.790243902439
10	103428	500	1.9973009446694
10	108742	520	3.8948717948718
10	114035	540	3.050641025641
10	119376	560	3.7410256410256
10	124801	580	2.1821862348178
10	130099	600	2.7589743589744
10	135332	620	3.4669365721997
10	140609	640	3.0219512195122
10	145798	660	1.8358974358974
10	151029	680	3.4243902439024
10	156309	700	2.0455128205128
10	161607	720	2.1641025641026
10	166858	740	4.2948717948718
10	172125	760	2.4589743589744
10	177431	780	2.4717948717949
10	182855	800	3.5121794871795
10	188167	820	2.6564102564103
10	193533	840	4.3780487804878
10	198864	860	2.5615384615385
10	204160	880	2.0487179487179
10	209498	900	3.8948717948718
10	214873	920	2.740243902439
10	220218	940	2.990243902439
10	225659	960	2.4743902439024
10	230856	980	2.5155195681511
10	236223	1000	4.0620782726046
10	241502	1020	2.6248313090418
10	246703	1040	1.8421052631579
10	252053	1060	4.1878048780488
10	257325	1080	3.0390243902439
10	262662	1100	3.9475609756098
10	267912	1120	3.0230769230769
10	273250	1140	3.0230769230769
10	278539	1160	2.9109756097561
10	283827	1180	2.6475609756098
10	289148	1200	3.650641025641
10	294487	1220	4.3788461538462
10	299767	1240	1.7685897435897
10	305088	1260	2.9839743589744
10	310342	1280	2.0202429149798
10	315675	1300	2.8660256410256
10	321010	1320	3.4256097560976
10	326255	1340	2.5512820512821
10	331617	1360	2.5102564102564
10	336994	1380	1.4831309041835
10	342270	1400	3.190243902439
10	347589	1420	2.4551920341394
10	352989	1440	3.7717948717949
10	358174	1460	2.6815114709852
10	363503	1480	3.2557692307692
10	368773	1500	2.8307692307692
10	374037	1520	3.3886639676113
10	379377	1540	2.159756097561
10	384650	1560	2.7891025641026
10	389882	1580	2.3940620782726
10	395194	1600	3.5681511470985
10	400379	1620	2.8313090418354
10	405617	1640	3.3307692307692
10	411037	1660	4.3019230769231
10	416410	1680	4.0743902439024
10	421716	1700	2.6666666666667
10	427002	1720	2.8301282051282
10	432337	1740	2.8147435897436
10	437603	1760	2.1948717948718
10	442808	1780	2.7076923076923
10	448054	1800	3.5519568151147
10	452997	1820	2.3798798798799
10	457374	1840	2.2566844919786
10	461191	1860	2.5333333333333
10	464545	1880	3.3333333333333
10	467529	1900	3.4710144927536
10	470032	1920	2.347619047619
10	472092	1940	2.0294117647059
10	473705	1960	3.552380952381
10	474733	1980	1.1555555555556
10	475366	2000	0.98214285714286
11	34608	240	230.64183847668
11	39768	260	91.091833682144
11	45002	280	277.73964417494
11	50183	300	93.422456823677
11	55589	320	91.098786556759
11	60922	340	93.265266649323
11	66187	360	92.396138512534
11	71542	380	191.82202377735
11	76809	400	96.69614970338
11	82132	420	45.386009955007
11	87526	440	90.531052976585
11	92836	460	0
11	98148	480	91.674046036747
11	103428	500	0
11	108742	520	137.14746737656
11	114035	540	94.483752447554
11	119376	560	90.656505033967
11	124801	580	91.899312783636
11	130099	600	181.18384229589
11	135332	620	227.71823995576
11	140609	640	90.382839518989
11	145798	660	98.354769566367
11	151029	680	183.82866766879
11	156309	700	140.17691028333
11	161607	720	135.97579647838
11	166858	740	90.20100242758
11	172125	760	89.848492318001
11	177431	780	136.85519213037
11	182855	800	45.43302213324
11	188167	820	136.86478661869
11	193533	840	139.60288263258
11	198864	860	0
11	204160	880	276.38546164617
11	209498	900	45.208137333466
11	214873	920	145.46026162673
11	220218	940	141.09379763454
11	225659	960	273.91293433059
11	230856	980	183.55918548918
11	236223	1000	91.318124418006
11	241502	1020	50.112704669681
11	246703	1040	44.876678409675
11	252053	1060	45.092604170153
11	257325	1080	89.923207547174
11	262662	1100	135.2328033999
11	267912	1120	183.89319374387
11	273250	1140	45.729275820143
11	278539	1160	92.564779709206
11	283827	1180	229.53496193996
11	289148	1200	45.065316870709
11	294487	1220	135.67454764407
11	299767	1240	232.4522958855
11	305088	1260	96.065497961501
11	310342	1280	227.80945796821
11	315675	1300	0
11	321010	1320	46.043823439126
11	326255	1340	45.590996983991
11	331617	1360	45.077380162973
11	336994	1380	134.89594634425
11	342270	1400	232.49430707702
11	347589	1420	135.88352904765
11	352989	1440	147.39238265808
11	358174	1460	237.94977123227
11	363503	1480	184.48873635435
11	368773	1500	142.50877097035
11	374037	1520	48.098616918829
11	379377	1540	273.03404074598
11	384650	1560	136.17411740452
11	389882	1580	89.522781238943
11	395194	1600	279.80730880113
11	400379	1620	141.2995565437
11	405617	1640	135.78679954035
11	411037	1660	91.189524415656
11	416410	1680	135.59185678699
11	421716	1700	138.21831560919
11	427002	1720	139.06013946215
11	432337	1740	46.044076173736
11	437603	1760	90.061558629948
11	442808	1780	0
11	448054	1800	274.32738162214
11	452997	1820	0
11	457374	1840	236.85509609996
11	461191	1860	47.897238129508
11	464545	1880	92.978138355538
11	467529	1900	45.864940998751
11	470032	1920	47.565934311617
11	472092	1940	50.207421842383
11	473705	1960	47.229595509093
11	474733	1980	0
11	475366	2000	0
12	34608	240	46.128367695336
12	39768	260	45.545916841072
12	45002	280	46.289940695824
12	50183	300	46.711228411838
12	55589	320	45.549393278379
12	60922	340	46.632633324662
12	66187	360	46.198069256267
12	71542	380	47.955505944337
12	76809	400	48.34807485169
12	82132	420	45.386009955007
12	87526	440	45.265526488293
12	92836	460	nan
12	98148	480	45.837023018374
12	103428	500	nan
12	108742	520	45.715822458853
12	114035	540	47.241876223777
12	119376	560	45.328252516984
12	124801	580	45.949656391818
12	130099	600	45.295960573972
12	135332	620	45.543647991151
12	140609	640	45.191419759495
12	145798	660	49.177384783183
12	151029	680	45.957166917197
12	156309	700	46.725636761109
12	161607	720	45.325265492795
12	166858	740	45.10050121379
12	172125	760	44.924246159
12	177431	780	45.61839737679
12	182855	800	45.43302213324
12	188167	820	45.621595539563
12	193533	840	46.534294210859
12	198864	860	nan
12	204160	880	46.064243607695
12	209498	900	45.208137333466
12	214873	920	48.486753875575
12	220218	940	47.031265878179
12	225659	960	45.652155721765
12	230856	980	45.889796372296
12	236223	1000	45.659062209003
12	241502	1020	50.112704669681
12	246703	1040	44.876678409675
12	252053	1060	45.092604170153
12	257325	1080	44.961603773587
12	262662	1100	45.0776011333
12	267912	1120	45.973298435967
12	273250	1140	45.729275820143
12	278539	1160	46.282389854603
12	283827	1180	45.906992387993
12	289148	1200	45.065316870709
12	294487	1220	45.22484921469
12	299767	1240	46.4904591771
12	305088	1260	48.032748980751
12	310342	1280	45.561891593642
12	315675	1300	nan
12	321010	1320	46.043823439126
12	326255	1340	45.590996983991
12	331617	1360	45.077380162973
12	336994	1380	44.965315448082
12	342270	1400	46.498861415405
12	347589	1420	45.29450968255
12	352989	1440	49.130794219361
12	358174	1460	47.589954246454
12	363503	1480	46.122184088587
12	368773	1500	47.502923656783
12	374037	1520	48.098616918829
12	379377	1540	45.505673457663
12	384650	1560	45.391372468174
12	389882	1580	44.761390619472
12	395194	1600	46.634551466854
12	400379	1620	47.099852181233
12	405617	1640	45.262266513449
12	411037	1660	45.594762207828
12	416410	1680	45.197285595663
12	421716	1700	46.072771869729
12	427002	1720	46.353379820716
12	432337	1740	46.044076173736
12	437603	1760	45.030779314974
12	442808	1780	nan
12	448054	1800	45.721230270357
12	452997	1820	nan
12	457374	1840	47.371019219993
12	461191	1860	47.897238129508
12	464545	1880	46.489069177769
12	467529	1900	45.864940998751
12	470032	1920	47.565934311617
12	472092	1940	50.207421842383
12	473705	1960	47.229595509093
12	474733	1980	nan
12	475366	2000	nan
13	34608	240	2.093078350664
13	39768	260	0.33873572196259
13	45002	280	0.95859586896374
13	50183	300	2.1760327993838
13	55589	320	0.076681277813886
13	60922	340	1.904205968687
13	66187	360	1.6157142120325
13	71542	380	3.5431684968956
13	76809	400	0.8787266241027
13	82132	420	nan
13	87526	440	0.14845084618965
13	92836	460	nan
13	98148	480	0.16439560130031
13	103428	500	nan
13	108742	520	1.1856682468182
13	114035	540	1.5543703541326
13	119376	560	0.14955469782998
13	124801	580	1.5100876179863
13	130099	600	0.72469608167213
13	135332	620	1.2861756597329
13	140609	640	1.2317217522693
13	145798	660	2.398285170166
13	151029	680	1.7592974033676
13	156309	700	2.286851608443
13	161607	720	1.1612076270751
13	166858	740	0.3050298150062
13	172125	760	0.77343911669875
13	177431	780	0.42677099156067
13	182855	800	nan
13	188167	820	1.2475621351865
13	193533	840	0.91538967507881
13	198864	860	nan
13	204160	880	1.6368210523598
13	209498	900	nan
13	214873	920	3.3645833853485
13	220218	940	1.6241079854687
13	225659	960	0.90992703962031
13	230856	980	0.60407009946414
13	236223	1000	0.048047728117433
13	241502	1020	nan
13	246703	1040	nan
13	252053	1060	nan
13	257325	1080	0.3820339547957
13	262662	1100	0.91484442710344
13	267912	1120	2.2870356108073
13	273250	1140	nan
13	278539	1160	0.71155045217798
13	283827	1180	1.5098892688176
13	289148	1200	nan
13	294487	1220	0.38453398706969
13	299767	1240	1.6128819842227
13	305088	1260	0.2598157780794
13	310342	1280	1.2862922512483
13	315675	1300	nan
13	321010	1320	nan
13	326255	1340	nan
13	331617	1360	nan
13	336994	1380	0.67962500915308
13	342270	1400	1.863397709463
13	347589	1420	0.28218148012138
13	352989	1440	2.2568222122898
13	358174	1460	2.6099057468672
13	363503	1480	0.92786444048473
13	368773	1500	3.1027687408695
13	374037	1520	nan
13	379377	1540	0.93734011458373
13	384650	1560	0.79817777936247
13	389882	1580	1.2770327449207
13	395194	1600	1.9920794563623
13	400379	1620	0.50669447485499
13	405617	1640	0.65168753049389
13	411037	1660	0.08404596410908
13	416410	1680	1.3451366891983
13	421716	1700	1.1903034078452
13	427002	1720	0.79669805280464
13	432337	1740	nan
13	437603	1760	1.7259799348466
13	442808	1780	nan
13	448054	1800	0.94122876790634
13	452997	1820	nan
13	457374	1840	2.9612443510063