version 2
run statisticRVV-213-20150326-06:42:05-612
attr c 4
attr configname statisticRVV
attr datetime 20150326-06:42:05
attr experiment statisticRVV
attr inifile omnetpp.ini
attr iterationvars "$sc=\"erlangen-medium.launchd.xml\", $p=1/5, $c=4"
attr iterationvars2 "$sc=\"erlangen-medium.launchd.xml\", $p=1/5, $c=4, $repetition=3"
attr measurement "$sc=\"erlangen-medium.launchd.xml\", $p=1/5, $c=4"
attr network RSUExampleScenario
attr p 1/5
attr processid 612
attr repetition 3
attr replication #3
attr resultdir results
attr runnumber 213
attr sc "\"erlangen-medium.launchd.xml\""
attr seedset 213

vector 0  RSUExampleScenario.rsu[0].appl  Number_CH  ETV
vector 1  RSUExampleScenario.rsu[0].appl  Number_ON  ETV
vector 2  RSUExampleScenario.rsu[0].appl  Number_FN  ETV
vector 3  RSUExampleScenario.rsu[0].appl  Number_CH_Losts  ETV
vector 4  RSUExampleScenario.rsu[0].appl  Mean_Cluster_Size  ETV
vector 5  RSUExampleScenario.rsu[0].appl  StdDev_Cluster_Size  ETV
vector 6  RSUExampleScenario.rsu[0].appl  Variance_Cluster_Size  ETV
vector 7  RSUExampleScenario.rsu[0].appl  Mean_Neighbors  ETV
vector 8  RSUExampleScenario.rsu[0].appl  StdDev_Neighbors  ETV
vector 9  RSUExampleScenario.rsu[0].appl  Variance_Neighbors  ETV
vector 10  RSUExampleScenario.rsu[0].appl  Total_CH_Utility  ETV
vector 11  RSUExampleScenario.rsu[0].appl  Mean_CH_Utility  ETV
vector 12  RSUExampleScenario.rsu[0].appl  StdDev_CH_Utility  ETV
vector 13  RSUExampleScenario.rsu[0].appl  Variance_CH_Utility  ETV
vector 14  RSUExampleScenario.rsu[0].appl  Total_exp_CH_Utility  ETV
vector 15  RSUExampleScenario.rsu[0].appl  Mean_exp_CH_Utility  ETV
vector 16  RSUExampleScenario.rsu[0].appl  StdDev_exp_CH_Utility  ETV
vector 17  RSUExampleScenario.rsu[0].appl  Variance_exp_CH_Utility  ETV
vector 18  RSUExampleScenario.rsu[0].appl  Total_ON_Utility  ETV
vector 19  RSUExampleScenario.rsu[0].appl  Mean_ON_Utility  ETV
vector 20  RSUExampleScenario.rsu[0].appl  StdDev_ON_Utility  ETV
vector 21  RSUExampleScenario.rsu[0].appl  Variance_ON_Utility  ETV
vector 22  RSUExampleScenario.rsu[0].appl  Total_exp_ON_Utility  ETV
vector 23  RSUExampleScenario.rsu[0].appl  Mean_exp_ON_Utility  ETV
vector 24  RSUExampleScenario.rsu[0].appl  StdDev_exp_ON_Utility  ETV
vector 25  RSUExampleScenario.rsu[0].appl  Variance_exp_ON_Utility  ETV
0	145912	240	12
0	171793	260	12
0	198570	280	13
0	226008	300	13
0	253313	320	13
0	280838	340	11
0	308444	360	16
0	335719	380	13
0	363519	400	15
0	391271	420	16
0	419728	440	15
0	448787	460	17
0	478221	480	13
0	508268	500	12
0	539047	520	24
0	570227	540	14
0	602241	560	13
0	635170	580	13
0	669322	600	17
0	703479	620	12
0	739156	640	14
0	775257	660	18
0	812804	680	15
0	851316	700	17
0	891199	720	11
0	932756	740	18
0	974995	760	16
0	1018291	780	16
0	1062959	800	19
0	1108811	820	15
0	1155854	840	10
0	1204272	860	17
0	1253590	880	20
0	1304486	900	19
0	1355999	920	24
0	1409286	940	20
0	1463421	960	21
0	1518512	980	19
0	1574937	1000	19
0	1632543	1020	21
0	1692064	1040	21
0	1752698	1060	24
0	1815316	1080	17
0	1879872	1100	20
0	1945315	1120	20
0	2012833	1140	21
0	2082600	1160	23
0	2153523	1180	30
0	2226403	1200	18
0	2301428	1220	25
0	2378229	1240	29
0	2457833	1260	27
0	2539315	1280	25
0	2622020	1300	26
0	2706494	1320	26
0	2793394	1340	20
0	2882251	1360	23
0	2973323	1380	25
0	3066445	1400	24
0	3161312	1420	26
0	3258532	1440	28
0	3359090	1460	27
0	3461663	1480	30
0	3566022	1500	26
0	3672201	1520	31
0	3780546	1540	24
0	3892115	1560	26
0	4005942	1580	31
0	4122168	1600	24
0	4239868	1620	25
0	4360360	1640	26
0	4482594	1660	34
0	4607355	1680	30
0	4735143	1700	34
0	4863782	1720	26
0	4994859	1740	23
0	5128983	1760	29
0	5266697	1780	32
0	5405536	1800	27
0	5547316	1820	34
0	5691828	1840	27
0	5838939	1860	30
0	5988360	1880	28
0	6140709	1900	32
0	6294487	1920	31
0	6450907	1940	27
0	6610578	1960	24
0	6773031	1980	29
0	6937771	2000	30
1	145912	240	15
1	171793	260	13
1	198570	280	23
1	226008	300	20
1	253313	320	18
1	280838	340	13
1	308444	360	19
1	335719	380	15
1	363519	400	17
1	391271	420	19
1	419728	440	20
1	448787	460	21
1	478221	480	18
1	508268	500	19
1	539047	520	38
1	570227	540	21
1	602241	560	19
1	635170	580	19
1	669322	600	26
1	703479	620	16
1	739156	640	20
1	775257	660	25
1	812804	680	21
1	851316	700	22
1	891199	720	18
1	932756	740	27
1	974995	760	23
1	1018291	780	21
1	1062959	800	27
1	1108811	820	21
1	1155854	840	13
1	1204272	860	21
1	1253590	880	27
1	1304486	900	27
1	1355999	920	33
1	1409286	940	30
1	1463421	960	27
1	1518512	980	30
1	1574937	1000	30
1	1632543	1020	29
1	1692064	1040	28
1	1752698	1060	33
1	1815316	1080	22
1	1879872	1100	26
1	1945315	1120	28
1	2012833	1140	30
1	2082600	1160	31
1	2153523	1180	40
1	2226403	1200	26
1	2301428	1220	30
1	2378229	1240	42
1	2457833	1260	37
1	2539315	1280	34
1	2622020	1300	33
1	2706494	1320	37
1	2793394	1340	30
1	2882251	1360	35
1	2973323	1380	41
1	3066445	1400	33
1	3161312	1420	32
1	3258532	1440	38
1	3359090	1460	37
1	3461663	1480	41
1	3566022	1500	37
1	3672201	1520	45
1	3780546	1540	37
1	3892115	1560	37
1	4005942	1580	41
1	4122168	1600	36
1	4239868	1620	35
1	4360360	1640	37
1	4482594	1660	55
1	4607355	1680	42
1	4735143	1700	50
1	4863782	1720	35
1	4994859	1740	33
1	5128983	1760	40
1	5266697	1780	45
1	5405536	1800	43
1	5547316	1820	51
1	5691828	1840	41
1	5838939	1860	43
1	5988360	1880	41
1	6140709	1900	50
1	6294487	1920	44
1	6450907	1940	41
1	6610578	1960	35
1	6773031	1980	42
1	6937771	2000	43
2	145912	240	53
2	171793	260	62
2	198570	280	55
2	226008	300	61
2	253313	320	64
2	280838	340	71
2	308444	360	60
2	335719	380	65
2	363519	400	62
2	391271	420	60
2	419728	440	62
2	448787	460	60
2	478221	480	69
2	508268	500	69
2	539047	520	40
2	570227	540	70
2	602241	560	72
2	635170	580	74
2	669322	600	66
2	703479	620	80
2	739156	640	76
2	775257	660	69
2	812804	680	77
2	851316	700	74
2	891199	720	85
2	932756	740	71
2	974995	760	78
2	1018291	780	80
2	1062959	800	73
2	1108811	820	84
2	1155854	840	100
2	1204272	860	86
2	1253590	880	78
2	1304486	900	79
2	1355999	920	70
2	1409286	940	78
2	1463421	960	81
2	1518512	980	81
2	1574937	1000	82
2	1632543	1020	82
2	1692064	1040	85
2	1752698	1060	78
2	1815316	1080	98
2	1879872	1100	93
2	1945315	1120	91
2	2012833	1140	89
2	2082600	1160	89
2	2153523	1180	73
2	2226403	1200	101
2	2301428	1220	90
2	2378229	1240	75
2	2457833	1260	86
2	2539315	1280	92
2	2622020	1300	91
2	2706494	1320	88
2	2793394	1340	103
2	2882251	1360	96
2	2973323	1380	91
2	3066445	1400	99
2	3161312	1420	99
2	3258532	1440	94
2	3359090	1460	96
2	3461663	1480	92
2	3566022	1500	99
2	3672201	1520	87
2	3780546	1540	103
2	3892115	1560	103
2	4005942	1580	98
2	4122168	1600	109
2	4239868	1620	110
2	4360360	1640	108
2	4482594	1660	83
2	4607355	1680	101
2	4735143	1700	92
2	4863782	1720	114
2	4994859	1740	121
2	5128983	1760	109
2	5266697	1780	105
2	5405536	1800	112
2	5547316	1820	97
2	5691828	1840	117
2	5838939	1860	114
2	5988360	1880	118
2	6140709	1900	105
2	6294487	1920	113
2	6450907	1940	122
2	6610578	1960	131
2	6773031	1980	122
2	6937771	2000	123
3	145912	240	1
3	171793	260	6
3	198570	280	7
3	226008	300	3
3	253313	320	5
3	280838	340	4
3	308444	360	6
3	335719	380	2
3	363519	400	2
3	391271	420	3
3	419728	440	5
3	448787	460	10
3	478221	480	3
3	508268	500	6
3	539047	520	2
3	570227	540	6
3	602241	560	1
3	635170	580	6
3	669322	600	7
3	703479	620	1
3	739156	640	6
3	775257	660	4
3	812804	680	5
3	851316	700	5
3	891199	720	8
3	932756	740	6
3	974995	760	13
3	1018291	780	8
3	1062959	800	5
3	1108811	820	6
3	1155854	840	4
3	1204272	860	6
3	1253590	880	5
3	1304486	900	8
3	1355999	920	8
3	1409286	940	6
3	1463421	960	6
3	1518512	980	9
3	1574937	1000	4
3	1632543	1020	7
3	1692064	1040	7
3	1752698	1060	14
3	1815316	1080	9
3	1879872	1100	6
3	1945315	1120	6
3	2012833	1140	4
3	2082600	1160	7
3	2153523	1180	11
3	2226403	1200	6
3	2301428	1220	5
3	2378229	1240	7
3	2457833	1260	3
3	2539315	1280	6
3	2622020	1300	7
3	2706494	1320	10
3	2793394	1340	7
3	2882251	1360	8
3	2973323	1380	4
3	3066445	1400	7
3	3161312	1420	5
3	3258532	1440	1
3	3359090	1460	8
3	3461663	1480	6
3	3566022	1500	12
3	3672201	1520	4
3	3780546	1540	5
3	3892115	1560	7
3	4005942	1580	8
3	4122168	1600	3
3	4239868	1620	11
3	4360360	1640	8
3	4482594	1660	8
3	4607355	1680	8
3	4735143	1700	4
3	4863782	1720	7
3	4994859	1740	6
3	5128983	1760	8
3	5266697	1780	7
3	5405536	1800	7
3	5547316	1820	4
3	5691828	1840	12
3	5838939	1860	8
3	5988360	1880	1
3	6140709	1900	7
3	6294487	1920	11
3	6450907	1940	5
3	6610578	1960	10
3	6773031	1980	8
3	6937771	2000	2
4	145912	240	1.25
4	171793	260	1.0833333333333
4	198570	280	1.7692307692308
4	226008	300	1.5384615384615
4	253313	320	1.3846153846154
4	280838	340	1.1818181818182
4	308444	360	1.1875
4	335719	380	1.1538461538462
4	363519	400	1.1333333333333
4	391271	420	1.1875
4	419728	440	1.3333333333333
4	448787	460	1.2352941176471
4	478221	480	1.3846153846154
4	508268	500	1.5833333333333
4	539047	520	1.5833333333333
4	570227	540	1.5
4	602241	560	1.4615384615385
4	635170	580	1.4615384615385
4	669322	600	1.5294117647059
4	703479	620	1.3333333333333
4	739156	640	1.4285714285714
4	775257	660	1.3888888888889
4	812804	680	1.4
4	851316	700	1.2941176470588
4	891199	720	1.6363636363636
4	932756	740	1.5
4	974995	760	1.4375
4	1018291	780	1.3125
4	1062959	800	1.4210526315789
4	1108811	820	1.4
4	1155854	840	1.3
4	1204272	860	1.2352941176471
4	1253590	880	1.35
4	1304486	900	1.4210526315789
4	1355999	920	1.375
4	1409286	940	1.5
4	1463421	960	1.2857142857143
4	1518512	980	1.5789473684211
4	1574937	1000	1.5789473684211
4	1632543	1020	1.3809523809524
4	1692064	1040	1.3333333333333
4	1752698	1060	1.375
4	1815316	1080	1.2941176470588
4	1879872	1100	1.3
4	1945315	1120	1.4
4	2012833	1140	1.4285714285714
4	2082600	1160	1.3478260869565
4	2153523	1180	1.3333333333333
4	2226403	1200	1.4444444444444
4	2301428	1220	1.2
4	2378229	1240	1.448275862069
4	2457833	1260	1.3703703703704
4	2539315	1280	1.36
4	2622020	1300	1.2692307692308
4	2706494	1320	1.4230769230769
4	2793394	1340	1.5
4	2882251	1360	1.5217391304348
4	2973323	1380	1.64
4	3066445	1400	1.375
4	3161312	1420	1.2307692307692
4	3258532	1440	1.3571428571429
4	3359090	1460	1.3703703703704
4	3461663	1480	1.3666666666667
4	3566022	1500	1.4230769230769
4	3672201	1520	1.4516129032258
4	3780546	1540	1.5416666666667
4	3892115	1560	1.4230769230769
4	4005942	1580	1.3225806451613
4	4122168	1600	1.5
4	4239868	1620	1.4
4	4360360	1640	1.4230769230769
4	4482594	1660	1.6176470588235
4	4607355	1680	1.4
4	4735143	1700	1.4705882352941
4	4863782	1720	1.3461538461538
4	4994859	1740	1.4347826086957
4	5128983	1760	1.3793103448276
4	5266697	1780	1.40625
4	5405536	1800	1.5925925925926
4	5547316	1820	1.5
4	5691828	1840	1.5185185185185
4	5838939	1860	1.4333333333333
4	5988360	1880	1.4642857142857
4	6140709	1900	1.5625
4	6294487	1920	1.4193548387097
4	6450907	1940	1.5185185185185
4	6610578	1960	1.4583333333333
4	6773031	1980	1.448275862069
4	6937771	2000	1.4333333333333
5	145912	240	0.45226701686665
5	171793	260	0.28867513459481
5	198570	280	0.43852900965351
5	226008	300	0.51887452166277
5	253313	320	0.50636968354183
5	280838	340	0.40451991747795
5	308444	360	0.40311288741493
5	335719	380	0.37553380809941
5	363519	400	0.3518657752745
5	391271	420	0.40311288741493
5	419728	440	0.48795003647427
5	448787	460	0.4372373160976
5	478221	480	0.50636968354183
5	508268	500	0.51492865054444
5	539047	520	0.58359207512176
5	570227	540	0.65044363558799
5	602241	560	0.51887452166277
5	635170	580	0.51887452166277
5	669322	600	0.51449575542753
5	703479	620	0.49236596391733
5	739156	640	0.5135525910131
5	775257	660	0.50163132570455
5	812804	680	0.50709255283711
5	851316	700	0.46966821831386
5	891199	720	0.50452497910951
5	932756	740	0.51449575542753
5	974995	760	0.51234753829798
5	1018291	780	0.47871355387817
5	1062959	800	0.60697697866688
5	1108811	820	0.50709255283711
5	1155854	840	0.48304589153965
5	1204272	860	0.4372373160976
5	1253590	880	0.48936048492959
5	1304486	900	0.50725727350179
5	1355999	920	0.49453535504684
5	1409286	940	0.60697697866688
5	1463421	960	0.46291004988628
5	1518512	980	0.60697697866688
5	1574937	1000	0.50725727350179
5	1632543	1020	0.49761335152812
5	1692064	1040	0.48304589153965
5	1752698	1060	0.49453535504684
5	1815316	1080	0.46966821831386
5	1879872	1100	0.47016234598163
5	1945315	1120	0.50262468995003
5	2012833	1140	0.50709255283711
5	2082600	1160	0.48698475355767
5	2153523	1180	0.47946330148538
5	2226403	1200	0.51130999256491
5	2301428	1220	0.40824829046386
5	2378229	1240	0.50612017887848
5	2457833	1260	0.49210287762341
5	2539315	1280	0.48989794855664
5	2622020	1300	0.4523443208612
5	2706494	1320	0.50383147365578
5	2793394	1340	0.51298917604258
5	2882251	1360	0.51075391845525
5	2973323	1380	0.48989794855664
5	3066445	1400	0.49453535504684
5	3161312	1420	0.42966892442366
5	3258532	1440	0.48795003647427
5	3359090	1460	0.49210287762341
5	3461663	1480	0.49013251785356
5	3566022	1500	0.50383147365578
5	3672201	1520	0.50587941102067
5	3780546	1540	0.50897737770405
5	3892115	1560	0.50383147365578
5	4005942	1580	0.47519096331149
5	4122168	1600	0.51075391845525
5	4239868	1620	0.5
5	4360360	1640	0.50383147365578
5	4482594	1660	0.49327021805638
5	4607355	1680	0.49827287912244
5	4735143	1700	0.5066403971049
5	4863782	1720	0.48516452403758
5	4994859	1740	0.5068698018697
5	5128983	1760	0.49380397379124
5	5266697	1780	0.49899091723585
5	5405536	1800	0.50071174413254
5	5547316	1820	0.50751921892255
5	5691828	1840	0.50917507721732
5	5838939	1860	0.50400693299373
5	5988360	1880	0.50787450018337
5	6140709	1900	0.50401612877419
5	6294487	1920	0.5016103101271
5	6450907	1940	0.50917507721732
5	6610578	1960	0.50897737770405
5	6773031	1980	0.50612017887848
5	6937771	2000	0.56832077715594
6	145912	240	0.20454545454545
6	171793	260	0.083333333333333
6	198570	280	0.19230769230769
6	226008	300	0.26923076923077
6	253313	320	0.25641025641026
6	280838	340	0.16363636363636
6	308444	360	0.1625
6	335719	380	0.14102564102564
6	363519	400	0.12380952380952
6	391271	420	0.1625
6	419728	440	0.23809523809524
6	448787	460	0.19117647058824
6	478221	480	0.25641025641026
6	508268	500	0.26515151515152
6	539047	520	0.34057971014493
6	570227	540	0.42307692307692
6	602241	560	0.26923076923077
6	635170	580	0.26923076923077
6	669322	600	0.26470588235294
6	703479	620	0.24242424242424
6	739156	640	0.26373626373626
6	775257	660	0.2516339869281
6	812804	680	0.25714285714286
6	851316	700	0.22058823529412
6	891199	720	0.25454545454545
6	932756	740	0.26470588235294
6	974995	760	0.2625
6	1018291	780	0.22916666666667
6	1062959	800	0.36842105263158
6	1108811	820	0.25714285714286
6	1155854	840	0.23333333333333
6	1204272	860	0.19117647058824
6	1253590	880	0.23947368421053
6	1304486	900	0.25730994152047
6	1355999	920	0.2445652173913
6	1409286	940	0.36842105263158
6	1463421	960	0.21428571428571
6	1518512	980	0.36842105263158
6	1574937	1000	0.25730994152047
6	1632543	1020	0.24761904761905
6	1692064	1040	0.23333333333333
6	1752698	1060	0.2445652173913
6	1815316	1080	0.22058823529412
6	1879872	1100	0.22105263157895
6	1945315	1120	0.25263157894737
6	2012833	1140	0.25714285714286
6	2082600	1160	0.23715415019763
6	2153523	1180	0.22988505747126
6	2226403	1200	0.26143790849673
6	2301428	1220	0.16666666666667
6	2378229	1240	0.25615763546798
6	2457833	1260	0.24216524216524
6	2539315	1280	0.24
6	2622020	1300	0.20461538461538
6	2706494	1320	0.25384615384615
6	2793394	1340	0.26315789473684
6	2882251	1360	0.26086956521739
6	2973323	1380	0.24
6	3066445	1400	0.2445652173913
6	3161312	1420	0.18461538461538
6	3258532	1440	0.23809523809524
6	3359090	1460	0.24216524216524
6	3461663	1480	0.24022988505747
6	3566022	1500	0.25384615384615
6	3672201	1520	0.25591397849462
6	3780546	1540	0.25905797101449
6	3892115	1560	0.25384615384615
6	4005942	1580	0.2258064516129
6	4122168	1600	0.26086956521739
6	4239868	1620	0.25
6	4360360	1640	0.25384615384615
6	4482594	1660	0.24331550802139
6	4607355	1680	0.24827586206897
6	4735143	1700	0.25668449197861
6	4863782	1720	0.23538461538462
6	4994859	1740	0.25691699604743
6	5128983	1760	0.24384236453202
6	5266697	1780	0.24899193548387
6	5405536	1800	0.25071225071225
6	5547316	1820	0.25757575757576
6	5691828	1840	0.25925925925926
6	5838939	1860	0.25402298850575
6	5988360	1880	0.25793650793651
6	6140709	1900	0.25403225806452
6	6294487	1920	0.25161290322581
6	6450907	1940	0.25925925925926
6	6610578	1960	0.25905797101449
6	6773031	1980	0.25615763546798
6	6937771	2000	0.32298850574713
7	145912	240	23.192307692308
7	171793	260	22.126436781609
7	198570	280	22.373626373626
7	226008	300	22.404255319149
7	253313	320	22.326315789474
7	280838	340	22.210526315789
7	308444	360	22.553191489362
7	335719	380	22.247311827957
7	363519	400	22.712765957447
7	391271	420	22.157894736842
7	419728	440	21.979381443299
7	448787	460	22.163265306122
7	478221	480	22.09
7	508268	500	22.22
7	539047	520	22.450980392157
7	570227	540	22.342857142857
7	602241	560	22.865384615385
7	635170	580	22.88679245283
7	669322	600	23.824074074074
7	703479	620	23.675925925926
7	739156	640	24.072727272727
7	775257	660	24.098214285714
7	812804	680	24.849557522124
7	851316	700	25.732142857143
7	891199	720	26.210526315789
7	932756	740	26.991379310345
7	974995	760	27.444444444444
7	1018291	780	27.410256410256
7	1062959	800	28.605042016807
7	1108811	820	28.808333333333
7	1155854	840	29.008130081301
7	1204272	860	29.266129032258
7	1253590	880	29.336
7	1304486	900	30.056
7	1355999	920	30.314960629921
7	1409286	940	30.3671875
7	1463421	960	30.883720930233
7	1518512	980	31.261538461538
7	1574937	1000	32.007633587786
7	1632543	1020	31.939393939394
7	1692064	1040	32.440298507463
7	1752698	1060	32.8
7	1815316	1080	33.474452554745
7	1879872	1100	34.246376811594
7	1945315	1120	34.647482014388
7	2012833	1140	35.164285714286
7	2082600	1160	36.288732394366
7	2153523	1180	36.755244755245
7	2226403	1200	37.048275862069
7	2301428	1220	38.055172413793
7	2378229	1240	38.595890410959
7	2457833	1260	39.173333333333
7	2539315	1280	40.238410596026
7	2622020	1300	40.473333333333
7	2706494	1320	40.801324503311
7	2793394	1340	42.203947368421
7	2882251	1360	42.590909090909
7	2973323	1380	43.320512820513
7	3066445	1400	44.128205128205
7	3161312	1420	44.713375796178
7	3258532	1440	45.01875
7	3359090	1460	46.0875
7	3461663	1480	46.748466257669
7	3566022	1500	47.413580246914
7	3672201	1520	48.300613496933
7	3780546	1540	48.926829268293
7	3892115	1560	49.951219512195
7	4005942	1580	49.988235294118
7	4122168	1600	50.639053254438
7	4239868	1620	50.917647058824
7	4360360	1640	51.719298245614
7	4482594	1660	52.186046511628
7	4607355	1680	52.722543352601
7	4735143	1700	53.079545454545
7	4863782	1720	54.298850574713
7	4994859	1740	53.830508474576
7	5128983	1760	54.623595505618
7	5266697	1780	54.697802197802
7	5405536	1800	55.845303867403
7	5547316	1820	56.67032967033
7	5691828	1840	56.616216216216
7	5838939	1860	57.016042780749
7	5988360	1880	57.967914438503
7	6140709	1900	58.55614973262
7	6294487	1920	59.154255319149
7	6450907	1940	59.847368421053
7	6610578	1960	60.978835978836
7	6773031	1980	60.761658031088
7	6937771	2000	60.933673469388
8	145912	240	4.4577604659322
8	171793	260	5.4597993780783
8	198570	280	4.7084990570205
8	226008	300	4.6842659285047
8	253313	320	4.6067529185325
8	280838	340	5.473135040071
8	308444	360	4.2694640223576
8	335719	380	4.5027911971076
8	363519	400	4.9091144996263
8	391271	420	4.6478450496787
8	419728	440	4.6412538298828
8	448787	460	4.5964887485433
8	478221	480	4.9870438198001
8	508268	500	3.8914046696573
8	539047	520	3.9642647576718
8	570227	540	4.829454045089
8	602241	560	3.9586643140844
8	635170	580	3.8005532296959
8	669322	600	2.8344631551035
8	703479	620	3.185330581015
8	739156	640	4.0426830288469
8	775257	660	4.5101683343439
8	812804	680	4.9248300168963
8	851316	700	4.4377214810499
8	891199	720	5.1067778737198
8	932756	740	5.7339502881562
8	974995	760	6.4292494929148
8	1018291	780	6.6929631679974
8	1062959	800	7.1119599522654
8	1108811	820	7.6820163596637
8	1155854	840	8.3061264521242
8	1204272	860	8.3890258075342
8	1253590	880	9.1103840080533
8	1304486	900	9.0903209780442
8	1355999	920	9.4932731299937
8	1409286	940	9.7527473163481
8	1463421	960	10.161683475021
8	1518512	980	10.858893291043
8	1574937	1000	10.788523947807
8	1632543	1020	11.107907626715
8	1692064	1040	12.032856768677
8	1752698	1060	11.787800422724
8	1815316	1080	12.535291528539
8	1879872	1100	12.932058052097
8	1945315	1120	13.2615076139
8	2012833	1140	14.427995724882
8	2082600	1160	14.756453563985
8	2153523	1180	14.809217144727
8	2226403	1200	15.574788670977
8	2301428	1220	16.234299813095
8	2378229	1240	17.236920585495
8	2457833	1260	18.029337265611
8	2539315	1280	18.432474461946
8	2622020	1300	18.338245020314
8	2706494	1320	18.675838175764
8	2793394	1340	19.761940414617
8	2882251	1360	20.184966137987
8	2973323	1380	20.12252378819
8	3066445	1400	20.697738055851
8	3161312	1420	21.757124078019
8	3258532	1440	22.477234289849
8	3359090	1460	23.194389773847
8	3461663	1480	23.646664358582
8	3566022	1500	23.856883080822
8	3672201	1520	24.247218236612
8	3780546	1540	24.835300666792
8	3892115	1560	25.248168220757
8	4005942	1580	26.011601470662
8	4122168	1600	26.355737408322
8	4239868	1620	26.35340686899
8	4360360	1640	26.439111660322
8	4482594	1660	26.760148264831
8	4607355	1680	26.915747323061
8	4735143	1700	27.341740603348
8	4863782	1720	27.310086193927
8	4994859	1740	27.711676573062
8	5128983	1760	27.68525489158
8	5266697	1780	28.087509180035
8	5405536	1800	28.197090916567
8	5547316	1820	29.034197761773
8	5691828	1840	29.435425949399
8	5838939	1860	29.352414847411
8	5988360	1880	29.435167275026
8	6140709	1900	29.887617498211
8	6294487	1920	30.113024754586
8	6450907	1940	30.736168109821
8	6610578	1960	30.529538830304
8	6773031	1980	30.977565493487
8	6937771	2000	31.267590967293
9	145912	240	19.871628371628
9	171793	260	29.809409248864
9	198570	280	22.169963369963
9	226008	300	21.94234728895
9	253313	320	21.222172452408
9	280838	340	29.955207166853
9	308444	360	18.228323038206
9	335719	380	20.27512856475
9	363519	400	24.099405170442
9	391271	420	21.602463605823
9	419728	440	21.541237113402
9	448787	460	21.127708815485
9	478221	480	24.870606060606
9	508268	500	15.14303030303
9	539047	520	15.715395068919
9	570227	540	23.323626373626
9	602241	560	15.671023151606
9	635170	580	14.444204851752
9	669322	600	8.0341813776393
9	703479	620	10.14633091035
9	739156	640	16.343286071726
9	775257	660	20.341618404118
9	812804	680	24.253950695322
9	851316	700	19.693371943372
9	891199	720	26.079180251514
9	932756	740	32.878185907046
9	974995	760	41.335249042146
9	1018291	780	44.79575596817
9	1062959	800	50.579974362626
9	1108811	820	59.01337535014
9	1155854	840	68.991736638678
9	1204272	860	70.375753999475
9	1253590	880	82.999096774194
9	1304486	900	82.633935483871
9	1355999	920	90.12223472066
9	1409286	940	95.116080216535
9	1463421	960	103.25981104651
9	1518512	980	117.91556350626
9	1574937	1000	116.3922489724
9	1632543	1020	123.38561184363
9	1692064	1040	144.78964201549
9	1752698	1060	138.95223880597
9	1815316	1080	157.13353370545
9	1879872	1100	167.23812546282
9	1945315	1120	175.86758419351
9	2012833	1140	208.1670606372
9	2082600	1160	217.75292178604
9	2153523	1180	219.31291243967
9	2226403	1200	242.57404214559
9	2301428	1220	263.55249042146
9	2378229	1240	297.11143127067
9	2457833	1260	325.05700223714
9	2539315	1280	339.75611479029
9	2622020	1300	336.29123042506
9	2706494	1320	348.78693156733
9	2793394	1340	390.53428895085
9	2882251	1360	407.43285799168
9	2973323	1380	404.91596360629
9	3066445	1400	428.39636062862
9	3161312	1420	473.37244814633
9	3258532	1440	505.22606132075
9	3359090	1460	537.97971698113
9	3461663	1480	559.16473528743
9	3566022	1500	569.15087033203
9	3672201	1520	587.92759221389
9	3780546	1540	616.79215920994
9	3892115	1560	637.46999850367
9	4005942	1580	676.60341106857
9	4122168	1600	694.62489433643
9	4239868	1620	694.50205360251
9	4360360	1640	699.026625387
9	4482594	1660	716.10553515572
9	4607355	1680	724.45745395887
9	4735143	1700	747.57077922078
9	4863782	1720	745.84080791974
9	4994859	1740	767.93701848998
9	5128983	1760	766.47333841173
9	5266697	1780	788.90817193856
9	5405536	1800	795.07593615715
9	5547316	1820	842.98463966972
9	5691828	1840	866.44430082256
9	5838939	1860	861.5642573745
9	5988360	1880	866.42907250877
9	6140709	1900	893.2696797194
9	6294487	1920	906.79425987029
9	6450907	1940	944.71203007519
9	6610578	1960	932.05274119104
9	6773031	1980	959.60956390328
9	6937771	2000	977.66224489796
10	145912	240	587.25558870636
10	171793	260	575.67601195802
10	198570	280	629.64729602239
10	226008	300	628.8616028155
10	253313	320	629.07655951191
10	280838	340	537.11061221018
10	308444	360	772.04942529192
10	335719	380	630.8993147227
10	363519	400	729.26355269694
10	391271	420	770.79800343291
10	419728	440	727.34862479497
10	448787	460	814.56923069758
10	478221	480	618.46384701515
10	508268	500	572.86332743569
10	539047	520	1157.3090965863
10	570227	540	685.06538160381
10	602241	560	635.10119532394
10	635170	580	636.6995517657
10	669322	600	846.46784730279
10	703479	620	590.33276534029
10	739156	640	684.39142293614
10	775257	660	876.9237346635
10	812804	680	722.95501408629
10	851316	700	813.59939290603
10	891199	720	543.68365328285
10	932756	740	876.53386931955
10	974995	760	784.22735962461
10	1018291	780	772.59593824721
10	1062959	800	921.02952934398
10	1108811	820	722.91885364026
10	1155854	840	499.36008979417
10	1204272	860	850.71167802217
10	1253590	880	981.6379834339
10	1304486	900	931.96267842709
10	1355999	920	1171.2586129386
10	1409286	940	991.62562779461
10	1463421	960	1039.7718160801
10	1518512	980	950.23347349809
10	1574937	1000	921.56450220534
10	1632543	1020	1018.0992321616
10	1692064	1040	1035.2426636205
10	1752698	1060	1184.9799013661
10	1815316	1080	848.42200851651
10	1879872	1100	987.54234930332
10	1945315	1120	991.71290223975
10	2012833	1140	1053.7157063997
10	2082600	1160	1149.686937119
10	2153523	1180	1494.20328134
10	2226403	1200	900.98690888642
10	2301428	1220	1240.4907117558
10	2378229	1240	1456.0468732834
10	2457833	1260	1337.6176464626
10	2539315	1280	1238.7598383456
10	2622020	1300	1310.348436998
10	2706494	1320	1307.569437194
10	2793394	1340	1008.5630498972
10	2882251	1360	1165.6199963948
10	2973323	1380	1275.1958821114
10	3066445	1400	1235.7201040295
10	3161312	1420	1300.6555865499
10	3258532	1440	1411.927226734
10	3359090	1460	1352.7012872528
10	3461663	1480	1526.9339490465
10	3566022	1500	1316.1962066376
10	3672201	1520	1568.6719050998
10	3780546	1540	1190.5648779008
10	3892115	1560	1294.376615772
10	4005942	1580	1551.2795508386
10	4122168	1600	1217.8647818941
10	4239868	1620	1238.1526043634
10	4360360	1640	1311.4390129612
10	4482594	1660	1721.3012754965
10	4607355	1680	1525.7364022181
10	4735143	1700	1731.3207850509
10	4863782	1720	1318.0484732573
10	4994859	1740	1174.5822178564
10	5128983	1760	1462.4493249934
10	5266697	1780	1617.4434050277
10	5405536	1800	1368.9680311448
10	5547316	1820	1699.6023905913
10	5691828	1840	1367.529860172
10	5838939	1860	1516.5886197299
10	5988360	1880	1426.4826276393
10	6140709	1900	1590.9298999825
10	6294487	1920	1576.3541536121
10	6450907	1940	1359.3923253477
10	6610578	1960	1231.6132285192
10	6773031	1980	1475.7436523005
10	6937771	2000	1514.5082117707
11	145912	240	48.93796572553
11	171793	260	47.973000996502
11	198570	280	48.434407386338
11	226008	300	48.373969447346
11	253313	320	48.39050457784
11	280838	340	48.828237473653
11	308444	360	48.253089080745
11	335719	380	48.530716517131
11	363519	400	48.617570179796
11	391271	420	48.174875214557
11	419728	440	48.489908319665
11	448787	460	47.915837099858
11	478221	480	47.574142078088
11	508268	500	47.738610619641
11	539047	520	48.221212357763
11	570227	540	48.933241543129
11	602241	560	48.853938101842
11	635170	580	48.976888597361
11	669322	600	49.792226311929
11	703479	620	49.19439711169
11	739156	640	48.885101638296
11	775257	660	48.717985259084
11	812804	680	48.197000939086
11	851316	700	47.858787818002
11	891199	720	49.425786662078
11	932756	740	48.696326073308
11	974995	760	49.014209976538
11	1018291	780	48.28724614045
11	1062959	800	48.475238386526
11	1108811	820	48.194590242684
11	1155854	840	49.936008979417
11	1204272	860	50.041863413069
11	1253590	880	49.081899171695
11	1304486	900	49.050667285636
11	1355999	920	48.802442205775
11	1409286	940	49.581281389731
11	1463421	960	49.512943622862
11	1518512	980	50.012288078847
11	1574937	1000	48.503394852912
11	1632543	1020	48.480915817218
11	1692064	1040	49.297269696216
11	1752698	1060	49.374162556921
11	1815316	1080	49.907176971559
11	1879872	1100	49.377117465166
11	1945315	1120	49.585645111987
11	2012833	1140	50.176938399984
11	2082600	1160	49.986388570389
11	2153523	1180	49.806776044668
11	2226403	1200	50.054828271468
11	2301428	1220	49.619628470233
11	2378229	1240	50.208512871843
11	2457833	1260	49.54139431343
11	2539315	1280	49.550393533824
11	2622020	1300	50.398016807617
11	2706494	1320	50.291132199771
11	2793394	1340	50.428152494859
11	2882251	1360	50.679130278033
11	2973323	1380	51.007835284456
11	3066445	1400	51.488337667896
11	3161312	1420	50.025214867305
11	3258532	1440	50.425972383358
11	3359090	1460	50.100047676031
11	3461663	1480	50.897798301549
11	3566022	1500	50.622931024525
11	3672201	1520	50.60231951935
11	3780546	1540	49.606869912531
11	3892115	1560	49.783715991231
11	4005942	1580	50.041275833504
11	4122168	1600	50.744365912254
11	4239868	1620	49.526104174535
11	4360360	1640	50.43996203697
11	4482594	1660	50.626508102839
11	4607355	1680	50.857880073937
11	4735143	1700	50.921199560322
11	4863782	1720	50.694172048358
11	4994859	1740	51.068792080712
11	5128983	1760	50.429287068739
11	5266697	1780	50.545106407114
11	5405536	1800	50.70251967203
11	5547316	1820	49.988305605627
11	5691828	1840	50.649254080443
11	5838939	1860	50.552953990997
11	5988360	1880	50.945808129976
11	6140709	1900	49.716559374454
11	6294487	1920	50.850133987487
11	6450907	1940	50.347863901766
11	6610578	1960	51.317217854965
11	6773031	1980	50.887712148293
11	6937771	2000	50.483607059025
12	145912	240	2.4525074799838
12	171793	260	2.7491746658319
12	198570	280	1.1673092184428
12	226008	300	1.3729295317877
12	253313	320	2.6086972992535
12	280838	340	3.7484687731499