version 2
run statisticRVV-159-20150327-09:58:40-16948
attr c 9
attr configname statisticRVV
attr datetime 20150327-09:58:40
attr experiment statisticRVV
attr inifile omnetpp.ini
attr iterationvars "$sc=\"erlangen-medium.launchd.xml\", $p=1/10, $c=9"
attr iterationvars2 "$sc=\"erlangen-medium.launchd.xml\", $p=1/10, $c=9, $repetition=9"
attr measurement "$sc=\"erlangen-medium.launchd.xml\", $p=1/10, $c=9"
attr network RSUExampleScenario
attr p 1/10
attr processid 16948
attr repetition 9
attr replication #9
attr resultdir results
attr runnumber 159
attr sc "\"erlangen-medium.launchd.xml\""
attr seedset 159

vector 0  RSUExampleScenario.rsu[0].appl  Number_CH  ETV
vector 1  RSUExampleScenario.rsu[0].appl  Number_ON  ETV
vector 2  RSUExampleScenario.rsu[0].appl  Number_FN  ETV
vector 3  RSUExampleScenario.rsu[0].appl  Number_CH_Losts  ETV
vector 4  RSUExampleScenario.rsu[0].appl  Number_CH_Losts  ETV
vector 5  RSUExampleScenario.rsu[0].appl  Mean_Cluster_Size  ETV
vector 6  RSUExampleScenario.rsu[0].appl  StdDev_Cluster_Size  ETV
vector 7  RSUExampleScenario.rsu[0].appl  Variance_Cluster_Size  ETV
vector 8  RSUExampleScenario.rsu[0].appl  Mean_Neighbors  ETV
vector 9  RSUExampleScenario.rsu[0].appl  StdDev_Neighbors  ETV
vector 10  RSUExampleScenario.rsu[0].appl  Variance_Neighbors  ETV
vector 11  RSUExampleScenario.rsu[0].appl  Total_CH_Utility  ETV
vector 12  RSUExampleScenario.rsu[0].appl  Mean_CH_Utility  ETV
vector 13  RSUExampleScenario.rsu[0].appl  StdDev_CH_Utility  ETV
vector 14  RSUExampleScenario.rsu[0].appl  Variance_CH_Utility  ETV
vector 15  RSUExampleScenario.rsu[0].appl  Total_exp_CH_Utility  ETV
vector 16  RSUExampleScenario.rsu[0].appl  Mean_exp_CH_Utility  ETV
vector 17  RSUExampleScenario.rsu[0].appl  StdDev_exp_CH_Utility  ETV
vector 18  RSUExampleScenario.rsu[0].appl  Variance_exp_CH_Utility  ETV
vector 19  RSUExampleScenario.rsu[0].appl  Total_ON_Utility  ETV
vector 20  RSUExampleScenario.rsu[0].appl  Mean_ON_Utility  ETV
vector 21  RSUExampleScenario.rsu[0].appl  StdDev_ON_Utility  ETV
vector 22  RSUExampleScenario.rsu[0].appl  Variance_ON_Utility  ETV
vector 23  RSUExampleScenario.rsu[0].appl  Total_exp_ON_Utility  ETV
vector 24  RSUExampleScenario.rsu[0].appl  Mean_exp_ON_Utility  ETV
vector 25  RSUExampleScenario.rsu[0].appl  StdDev_exp_ON_Utility  ETV
vector 26  RSUExampleScenario.rsu[0].appl  Variance_exp_ON_Utility  ETV
0	145195	240	11
0	171237	260	9
0	198407	280	8
0	225790	300	12
0	253233	320	9
0	280468	340	8
0	307719	360	8
0	335537	380	11
0	363494	400	9
0	391983	420	17
0	420889	440	6
0	450677	460	10
0	481003	480	10
0	511383	500	8
0	542643	520	12
0	574574	540	9
0	607215	560	8
0	640653	580	12
0	674806	600	15
0	710212	620	18
0	746231	640	11
0	783866	660	10
0	822895	680	9
0	862431	700	14
0	903401	720	10
0	945962	740	12
0	989018	760	10
0	1033126	780	14
0	1079230	800	13
0	1126108	820	12
0	1173625	840	11
0	1222865	860	10
0	1273189	880	14
0	1324818	900	11
0	1377552	920	10
0	1431884	940	8
0	1487208	960	10
0	1543489	980	20
0	1601194	1000	15
0	1660755	1020	8
0	1721763	1040	11
0	1784403	1060	17
0	1848884	1080	13
0	1915344	1100	17
0	1983122	1120	16
0	2052900	1140	13
0	2124466	1160	17
0	2198366	1180	12
0	2273658	1200	13
0	2350254	1220	13
0	2429683	1240	18
0	2510890	1260	12
0	2594733	1280	16
0	2680030	1300	15
0	2767254	1320	22
0	2856464	1340	23
0	2948387	1360	16
0	3041599	1380	14
0	3137306	1400	15
0	3235011	1420	13
0	3335023	1440	15
0	3437756	1460	14
0	3542281	1480	11
0	3649055	1500	17
0	3758135	1520	19
0	3869430	1540	13
0	3983623	1560	24
0	4099488	1580	15
0	4217466	1600	15
0	4337727	1620	17
0	4461041	1640	19
0	4586350	1660	15
0	4714730	1680	17
0	4844707	1700	17
0	4977639	1720	26
0	5112899	1740	19
0	5250782	1760	21
0	5390323	1780	15
0	5532854	1800	19
0	5677517	1820	21
0	5825033	1840	27
0	5973713	1860	9
0	6126060	1880	24
0	6281163	1900	18
0	6438885	1920	20
0	6599154	1940	26
0	6761556	1960	21
0	6926784	1980	17
0	7094705	2000	17
1	145195	240	53
1	171237	260	55
1	198407	280	64
1	225790	300	73
1	253233	320	57
1	280468	340	55
1	307719	360	66
1	335537	380	71
1	363494	400	49
1	391983	420	76
1	420889	440	37
1	450677	460	68
1	481003	480	60
1	511383	500	57
1	542643	520	76
1	574574	540	56
1	607215	560	55
1	640653	580	57
1	674806	600	87
1	710212	620	87
1	746231	640	85
1	783866	660	54
1	822895	680	72
1	862431	700	84
1	903401	720	64
1	945962	740	69
1	989018	760	72
1	1033126	780	98
1	1079230	800	90
1	1126108	820	74
1	1173625	840	60
1	1222865	860	70
1	1273189	880	84
1	1324818	900	74
1	1377552	920	76
1	1431884	940	66
1	1487208	960	78
1	1543489	980	103
1	1601194	1000	101
1	1660755	1020	69
1	1721763	1040	73
1	1784403	1060	106
1	1848884	1080	96
1	1915344	1100	97
1	1983122	1120	111
1	2052900	1140	92
1	2124466	1160	113
1	2198366	1180	87
1	2273658	1200	101
1	2350254	1220	65
1	2429683	1240	119
1	2510890	1260	75
1	2594733	1280	97
1	2680030	1300	104
1	2767254	1320	103
1	2856464	1340	122
1	2948387	1360	110
1	3041599	1380	101
1	3137306	1400	102
1	3235011	1420	96
1	3335023	1440	103
1	3437756	1460	106
1	3542281	1480	94
1	3649055	1500	86
1	3758135	1520	132
1	3869430	1540	105
1	3983623	1560	116
1	4099488	1580	110
1	4217466	1600	109
1	4337727	1620	119
1	4461041	1640	112
1	4586350	1660	90
1	4714730	1680	125
1	4844707	1700	121
1	4977639	1720	129
1	5112899	1740	121
1	5250782	1760	132
1	5390323	1780	114
1	5532854	1800	127
1	5677517	1820	140
1	5825033	1840	137
1	5973713	1860	71
1	6126060	1880	147
1	6281163	1900	125
1	6438885	1920	134
1	6599154	1940	148
1	6761556	1960	124
1	6926784	1980	120
1	7094705	2000	128
2	145195	240	16
2	171237	260	22
2	198407	280	20
2	225790	300	8
2	253233	320	28
2	280468	340	30
2	307719	360	20
2	335537	380	14
2	363494	400	36
2	391983	420	5
2	420889	440	54
2	450677	460	23
2	481003	480	31
2	511383	500	36
2	542643	520	14
2	574574	540	38
2	607215	560	44
2	640653	580	37
2	674806	600	5
2	710212	620	5
2	746231	640	14
2	783866	660	47
2	822895	680	33
2	862431	700	15
2	903401	720	41
2	945962	740	36
2	989018	760	35
2	1033126	780	7
2	1079230	800	17
2	1126108	820	36
2	1173625	840	51
2	1222865	860	45
2	1273189	880	28
2	1324818	900	42
2	1377552	920	42
2	1431884	940	55
2	1487208	960	42
2	1543489	980	9
2	1601194	1000	17
2	1660755	1020	58
2	1721763	1040	52
2	1784403	1060	14
2	1848884	1080	30
2	1915344	1100	27
2	1983122	1120	14
2	2052900	1140	39
2	2124466	1160	14
2	2198366	1180	47
2	2273658	1200	32
2	2350254	1220	67
2	2429683	1240	11
2	2510890	1260	62
2	2594733	1280	38
2	2680030	1300	33
2	2767254	1320	27
2	2856464	1340	9
2	2948387	1360	31
2	3041599	1380	40
2	3137306	1400	40
2	3235011	1420	49
2	3335023	1440	43
2	3437756	1460	41
2	3542281	1480	59
2	3649055	1500	60
2	3758135	1520	15
2	3869430	1540	49
2	3983623	1560	28
2	4099488	1580	46
2	4217466	1600	45
2	4337727	1620	36
2	4461041	1640	41
2	4586350	1660	70
2	4714730	1680	33
2	4844707	1700	38
2	4977639	1720	23
2	5112899	1740	39
2	5250782	1760	28
2	5390323	1780	53
2	5532854	1800	36
2	5677517	1820	23
2	5825033	1840	22
2	5973713	1860	107
2	6126060	1880	18
2	6281163	1900	46
2	6438885	1920	35
2	6599154	1940	18
2	6761556	1960	48
2	6926784	1980	58
2	7094705	2000	51
3	145195	240	0
3	171237	260	0
3	198407	280	0
3	225790	300	0
3	253233	320	0
3	280468	340	0
3	307719	360	0
3	335537	380	1
3	363494	400	0
3	391983	420	0
3	420889	440	0
3	450677	460	1
3	481003	480	1
3	511383	500	0
3	542643	520	2
3	574574	540	2
3	607215	560	0
3	640653	580	1
3	674806	600	0
3	710212	620	0
3	746231	640	0
3	783866	660	0
3	822895	680	1
3	862431	700	1
3	903401	720	0
3	945962	740	0
3	989018	760	0
3	1033126	780	0
3	1079230	800	0
3	1126108	820	0
3	1173625	840	2
3	1222865	860	0
3	1273189	880	0
3	1324818	900	0
3	1377552	920	1
3	1431884	940	1
3	1487208	960	0
3	1543489	980	0
3	1601194	1000	1
3	1660755	1020	0
3	1721763	1040	0
3	1784403	1060	0
3	1848884	1080	0
3	1915344	1100	0
3	1983122	1120	0
3	2052900	1140	1
3	2124466	1160	0
3	2198366	1180	1
3	2273658	1200	0
3	2350254	1220	1
3	2429683	1240	2
3	2510890	1260	0
3	2594733	1280	0
3	2680030	1300	0
3	2767254	1320	0
3	2856464	1340	1
3	2948387	1360	0
3	3041599	1380	0
3	3137306	1400	1
3	3235011	1420	0
3	3335023	1440	0
3	3437756	1460	0
3	3542281	1480	0
3	3649055	1500	1
3	3758135	1520	1
3	3869430	1540	0
3	3983623	1560	2
3	4099488	1580	0
3	4217466	1600	0
3	4337727	1620	0
3	4461041	1640	0
3	4586350	1660	1
3	4714730	1680	0
3	4844707	1700	0
3	4977639	1720	1
3	5112899	1740	0
3	5250782	1760	0
3	5390323	1780	0
3	5532854	1800	0
3	5677517	1820	2
3	5825033	1840	0
3	5973713	1860	0
3	6126060	1880	0
3	6281163	1900	0
3	6438885	1920	1
3	6599154	1940	1
3	6761556	1960	1
3	6926784	1980	0
3	7094705	2000	0
4	145195	240	15
4	171237	260	21
4	198407	280	19
4	225790	300	8
4	253233	320	28
4	280468	340	30
4	307719	360	20
4	335537	380	13
4	363494	400	36
4	391983	420	5
4	420889	440	54
4	450677	460	21
4	481003	480	29
4	511383	500	36
4	542643	520	12
4	574574	540	36
4	607215	560	43
4	640653	580	36
4	674806	600	5
4	710212	620	5
4	746231	640	14
4	783866	660	47
4	822895	680	32
4	862431	700	14
4	903401	720	41
4	945962	740	36
4	989018	760	35
4	1033126	780	7
4	1079230	800	17
4	1126108	820	36
4	1173625	840	48
4	1222865	860	45
4	1273189	880	28
4	1324818	900	42
4	1377552	920	41
4	1431884	940	53
4	1487208	960	42
4	1543489	980	8
4	1601194	1000	16
4	1660755	1020	58
4	1721763	1040	52
4	1784403	1060	14
4	1848884	1080	30
4	1915344	1100	27
4	1983122	1120	14
4	2052900	1140	38
4	2124466	1160	14
4	2198366	1180	46
4	2273658	1200	32
4	2350254	1220	66
4	2429683	1240	9
4	2510890	1260	62
4	2594733	1280	38
4	2680030	1300	33
4	2767254	1320	27
4	2856464	1340	8
4	2948387	1360	31
4	3041599	1380	40
4	3137306	1400	39
4	3235011	1420	49
4	3335023	1440	42
4	3437756	1460	41
4	3542281	1480	59
4	3649055	1500	59
4	3758135	1520	14
4	3869430	1540	49
4	3983623	1560	26
4	4099488	1580	46
4	4217466	1600	45
4	4337727	1620	36
4	4461041	1640	40
4	4586350	1660	69
4	4714730	1680	33
4	4844707	1700	38
4	4977639	1720	22
4	5112899	1740	39
4	5250782	1760	28
4	5390323	1780	52
4	5532854	1800	36
4	5677517	1820	21
4	5825033	1840	22
4	5973713	1860	107
4	6126060	1880	18
4	6281163	1900	46
4	6438885	1920	34
4	6599154	1940	17
4	6761556	1960	47
4	6926784	1980	58
4	7094705	2000	50
5	145195	240	4.8181818181818
5	171237	260	6.1111111111111
5	198407	280	8
5	225790	300	6.0833333333333
5	253233	320	6.3333333333333
5	280468	340	6.875
5	307719	360	8.25
5	335537	380	6.4545454545455
5	363494	400	5.4444444444444
5	391983	420	4.4705882352941
5	420889	440	6.1666666666667
5	450677	460	6.8
5	481003	480	6
5	511383	500	7.125
5	542643	520	6.3333333333333
5	574574	540	6.2222222222222
5	607215	560	6.875
5	640653	580	4.75
5	674806	600	5.8
5	710212	620	4.8333333333333
5	746231	640	7.7272727272727
5	783866	660	5.4
5	822895	680	8
5	862431	700	6
5	903401	720	6.4
5	945962	740	5.75
5	989018	760	7.2
5	1033126	780	7
5	1079230	800	6.9230769230769
5	1126108	820	6.1666666666667
5	1173625	840	5.4545454545455
5	1222865	860	7
5	1273189	880	6
5	1324818	900	6.7272727272727
5	1377552	920	7.6
5	1431884	940	8.25
5	1487208	960	7.8
5	1543489	980	5.15
5	1601194	1000	6.7333333333333
5	1660755	1020	8.625
5	1721763	1040	6.6363636363636
5	1784403	1060	6.2352941176471
5	1848884	1080	7.3846153846154
5	1915344	1100	5.7058823529412
5	1983122	1120	6.9375
5	2052900	1140	7.0769230769231
5	2124466	1160	6.6470588235294
5	2198366	1180	7.25
5	2273658	1200	7.7692307692308
5	2350254	1220	5
5	2429683	1240	6.6111111111111
5	2510890	1260	6.25
5	2594733	1280	6.0625
5	2680030	1300	6.9333333333333
5	2767254	1320	4.6818181818182
5	2856464	1340	5.304347826087
5	2948387	1360	6.875
5	3041599	1380	7.2142857142857
5	3137306	1400	6.8
5	3235011	1420	7.3846153846154
5	3335023	1440	6.8666666666667
5	3437756	1460	7.5714285714286
5	3542281	1480	8.5454545454545
5	3649055	1500	5.0588235294118
5	3758135	1520	6.9473684210526
5	3869430	1540	8.0769230769231
5	3983623	1560	4.8333333333333
5	4099488	1580	7.3333333333333
5	4217466	1600	7.2666666666667
5	4337727	1620	7
5	4461041	1640	5.8947368421053
5	4586350	1660	6
5	4714730	1680	7.3529411764706
5	4844707	1700	7.1176470588235
5	4977639	1720	4.9615384615385
5	5112899	1740	6.3684210526316
5	5250782	1760	6.2857142857143
5	5390323	1780	7.6
5	5532854	1800	6.6842105263158
5	5677517	1820	6.6666666666667
5	5825033	1840	5.0740740740741
5	5973713	1860	7.8888888888889
5	6126060	1880	6.125
5	6281163	1900	6.9444444444444
5	6438885	1920	6.7
5	6599154	1940	5.6923076923077
5	6761556	1960	5.9047619047619
5	6926784	1980	7.0588235294118
5	7094705	2000	7.5294117647059
6	145195	240	2.7502066038093
6	171237	260	2.368778400592
6	198407	280	1.5118578920369
6	225790	300	2.2746961169005
6	253233	320	2.3979157616564
6	280468	340	2.6958963523951
6	307719	360	0.46291004988628
6	335537	380	2.2074254852038
6	363494	400	1.9436506316151
6	391983	420	2.3215740096652
6	420889	440	2.7868739954771
6	450677	460	1.9888578520235
6	481003	480	3.1622776601684
6	511383	500	2.1001700611413
6	542643	520	2.4618298195867
6	574574	540	2.488864087178
6	607215	560	2.8504385627478
6	640653	580	2.3788843832963
6	674806	600	2.3360528369758
6	710212	620	2.0934070175617
6	746231	640	1.5550504230352
6	783866	660	3.1340424729448
6	822895	680	1.5811388300842
6	862431	700	2.3858557568109
6	903401	720	2.1705094128133
6	945962	740	2.6671401094874
6	989018	760	1.6193277068655
6	1033126	780	1.8397324220156
6	1079230	800	1.8009968749528
6	1126108	820	2.289634084832
6	1173625	840	3.0777796010643
6	1222865	860	2.9439202887759
6	1273189	880	2.2188007849009
6	1324818	900	2.2401298663653
6	1377552	920	1.6465452046971
6	1431884	940	0.88640526042792
6	1487208	960	1.873795909674
6	1543489	980	2.207046132635
6	1601194	1000	1.7915143899851
6	1660755	1020	0.51754916950677
6	1721763	1040	2.766684921444
6	1784403	1060	2.5379472946829
6	1848884	1080	2.3992520201951
6	1915344	1100	1.8962036376123
6	1983122	1120	1.8786076404259
6	2052900	1140	1.7059473644449
6	2124466	1160	1.9020113193206
6	2198366	1180	2.0943647333651
6	2273658	1200	1.3634420996047
6	2350254	1220	2.6457513110646
6	2429683	1240	2.3549419597916
6	2510890	1260	2.0943647333651
6	2594733	1280	2.4349880218733
6	2680030	1300	1.9808608037441
6	2767254	1320	2.8011284058965
6	2856464	1340	2.4389785978541
6	2948387	1360	1.5864005379054
6	3041599	1380	1.1217137594956
6	3137306	1400	2.111194651647
6	3235011	1420	1.1208970766356
6	3335023	1440	2.4746332099545
6	3437756	1460	1.6508406117111
6	3542281	1480	0.68755165095233
6	3649055	1500	2.8825029972945
6	3758135	1520	2.0942695414585
6	3869430	1540	1.115163550153
6	3983623	1560	2.6320213205603
6	4099488	1580	1.838736626315
6	4217466	1600	2.4043611170023
6	4337727	1620	1.7320508075689
6	4461041	1640	2.4242922642405
6	4586350	1660	3.4434202266268
6	4714730	1680	1.5788119136944
6	4844707	1700	2.2880765104443
6	4977639	1720	2.6302968536767
6	5112899	1740	2.3383404921675
6	5250782	1760	2.3268617737815
6	5390323	1780	1.4540583599999
6	5532854	1800	2.3345861298442
6	5677517	1820	2.3944379994757
6	5825033	1840	2.4639856069436
6	5973713	1860	1.6914819275154
6	6126060	1880	2.5248762345905
6	6281163	1900	1.7647603477434
6	6438885	1920	1.9221698265516
6	6599154	1940	2.6194538479497
6	6761556	1960	2.4880667576406
6	6926784	1980	1.7843271923646
6	7094705	2000	1.3746657347708
7	145195	240	7.5636363636364
7	171237	260	5.6111111111111
7	198407	280	2.2857142857143
7	225790	300	5.1742424242424
7	253233	320	5.75
7	280468	340	7.2678571428571
7	307719	360	0.21428571428571
7	335537	380	4.8727272727273
7	363494	400	3.7777777777778
7	391983	420	5.3897058823529
7	420889	440	7.7666666666667
7	450677	460	3.9555555555556
7	481003	480	10
7	511383	500	4.4107142857143
7	542643	520	6.0606060606061
7	574574	540	6.1944444444444
7	607215	560	8.125
7	640653	580	5.6590909090909
7	674806	600	5.4571428571429
7	710212	620	4.3823529411765
7	746231	640	2.4181818181818
7	783866	660	9.8222222222222
7	822895	680	2.5
7	862431	700	5.6923076923077
7	903401	720	4.7111111111111
7	945962	740	7.1136363636364
7	989018	760	2.6222222222222
7	1033126	780	3.3846153846154
7	1079230	800	3.2435897435897
7	1126108	820	5.2424242424242
7	1173625	840	9.4727272727273
7	1222865	860	8.6666666666667
7	1273189	880	4.9230769230769
7	1324818	900	5.0181818181818
7	1377552	920	2.7111111111111
7	1431884	940	0.78571428571429
7	1487208	960	3.5111111111111
7	1543489	980	4.8710526315789
7	1601194	1000	3.2095238095238
7	1660755	1020	0.26785714285714
7	1721763	1040	7.6545454545455
7	1784403	1060	6.4411764705882
7	1848884	1080	5.7564102564103
7	1915344	1100	3.5955882352941
7	1983122	1120	3.5291666666667
7	2052900	1140	2.9102564102564
7	2124466	1160	3.6176470588235
7	2198366	1180	4.3863636363636
7	2273658	1200	1.8589743589744
7	2350254	1220	7
7	2429683	1240	5.5457516339869
7	2510890	1260	4.3863636363636
7	2594733	1280	5.9291666666667
7	2680030	1300	3.9238095238095
7	2767254	1320	7.8463203463203
7	2856464	1340	5.9486166007905
7	2948387	1360	2.5166666666667
7	3041599	1380	1.2582417582418
7	3137306	1400	4.4571428571429
7	3235011	1420	1.2564102564103
7	3335023	1440	6.1238095238095
7	3437756	1460	2.7252747252747
7	3542281	1480	0.47272727272727
7	3649055	1500	8.3088235294118
7	3758135	1520	4.3859649122807
7	3869430	1540	1.2435897435897
7	3983623	1560	6.9275362318841
7	4099488	1580	3.3809523809524
7	4217466	1600	5.7809523809524
7	4337727	1620	3
7	4461041	1640	5.8771929824561
7	4586350	1660	11.857142857143
7	4714730	1680	2.4926470588235
7	4844707	1700	5.2352941176471
7	4977639	1720	6.9184615384615
7	5112899	1740	5.4678362573099
7	5250782	1760	5.4142857142857
7	5390323	1780	2.1142857142857
7	5532854	1800	5.4502923976608
7	5677517	1820	5.7333333333333
7	5825033	1840	6.0712250712251
7	5973713	1860	2.8611111111111
7	6126060	1880	6.375
7	6281163	1900	3.1143790849673
7	6438885	1920	3.6947368421053
7	6599154	1940	6.8615384615385
7	6761556	1960	6.1904761904762
7	6926784	1980	3.1838235294118
7	7094705	2000	1.8897058823529
8	145195	240	22.632911392405
8	171237	260	22.882352941176
8	198407	280	22.384615384615
8	225790	300	22.634408602151
8	253233	320	22.404255319149
8	280468	340	22.387096774194
8	307719	360	22.191489361702
8	335537	380	21.9375
8	363494	400	22.446808510638
8	391983	420	21.826530612245
8	420889	440	22.247422680412
8	450677	460	22.23
8	481003	480	22.34
8	511383	500	22.60396039604
8	542643	520	22.588235294118
8	574574	540	22.834951456311
8	607215	560	23.047169811321
8	640653	580	23.018867924528
8	674806	600	23.560747663551
8	710212	620	23.927272727273
8	746231	640	24.372727272727
8	783866	660	24.864864864865
8	822895	680	25.587719298246
8	862431	700	25.752212389381
8	903401	720	27.095652173913
8	945962	740	27.153846153846
8	989018	760	27.897435897436
8	1033126	780	28.218487394958
8	1079230	800	28.525
8	1126108	820	29.024590163934
8	1173625	840	29.057851239669
8	1222865	860	29.36
8	1273189	880	30.095238095238
8	1324818	900	30.023622047244
8	1377552	920	30.703125
8	1431884	940	30.71875
8	1487208	960	31.1
8	1543489	980	31.541984732824
8	1601194	1000	31.954545454545
8	1660755	1020	31.874074074074
8	1721763	1040	32.970588235294
8	1784403	1060	33.313868613139
8	1848884	1080	34
8	1915344	1100	34.765957446809
8	1983122	1120	35.574468085106
8	2052900	1140	35.722222222222
8	2124466	1160	36.763888888889
8	2198366	1180	37.315068493151
8	2273658	1200	37.828767123288
8	2350254	1220	38.696551724138
8	2429683	1240	39.297297297297
8	2510890	1260	40.38255033557
8	2594733	1280	41.092715231788
8	2680030	1300	41.559210526316
8	2767254	1320	42.414473684211
8	2856464	1340	42.844155844156
8	2948387	1360	43.305732484076
8	3041599	1380	44.187096774194
8	3137306	1400	44.987261146497
8	3235011	1420	45.708860759494
8	3335023	1440	46.225
8	3437756	1460	46.751552795031
8	3542281	1480	47.243902439024
8	3649055	1500	48.429447852761
8	3758135	1520	48.897590361446
8	3869430	1540	49.718562874251
8	3983623	1560	49.845238095238
8	4099488	1580	50.695906432749
8	4217466	1600	50.970414201183
8	4337727	1620	51.552325581395
8	4461041	1640	52.584795321637
8	4586350	1660	52.571428571429
8	4714730	1680	53.617142857143
8	4844707	1700	53.806818181818
8	4977639	1720	54.393258426966
8	5112899	1740	55.139664804469
8	5250782	1760	55.475138121547
8	5390323	1780	55.911602209945
8	5532854	1800	56.489010989011
8	5677517	1820	56.771739130435
8	5825033	1840	57.247311827957
8	5973713	1860	57.748663101604
8	6126060	1880	58.095238095238
8	6281163	1900	59.201058201058
8	6438885	1920	60.190476190476
8	6599154	1940	60.395833333333
8	6761556	1960	61.010362694301
8	6926784	1980	61.415384615385
8	7094705	2000	61.979487179487
9	145195	240	4.9463200908116
9	171237	260	4.1873157804706
9	198407	280	4.5381573127065
9	225790	300	4.4934371134021
9	253233	320	4.3361921478082
9	280468	340	4.3289527252044
9	307719	360	4.4244593758676
9	335537	380	5.00065785146
9	363494	400	4.4033638687698
9	391983	420	4.8055498633085
9	420889	440	4.0723430188566
9	450677	460	4.1288710027774
9	481003	480	4.4748906651053
9	511383	500	3.4672156204101
9	542643	520	3.2315062275267
9	574574	540	2.7798190355074
9	607215	560	3.960235864721
9	640653	580	3.6955085533799
9	674806	600	2.7683438618807
9	710212	620	3.6865963291015
9	746231	640	3.6620019864537
9	783866	660	4.5775866735978
9	822895	680	4.9238653129045
9	862431	700	4.9615143379735
9	903401	720	5.9160411031446
9	945962	740	6.7970776994227
9	989018	760	6.857395473432
9	1033126	780	7.042437540099
9	1079230	800	7.3048418385147
9	1126108	820	8.0386084017856
9	1173625	840	7.1998813886771
9	1222865	860	8.570768023703
9	1273189	880	9.1899323796673
9	1324818	900	9.577142569291
9	1377552	920	9.845546876994
9	1431884	940	9.9510118980572
9	1487208	960	10.276676384872
9	1543489	980	10.832472224385
9	1601194	1000	11.308217397443
9	1660755	1020	12.047437102585
9	1721763	1040	12.79637748304
9	1784403	1060	12.665232531258
9	1848884	1080	13.426126379757
9	1915344	1100	14.089833365066
9	1983122	1120	13.777950315399
9	2052900	1140	15.023266079602
9	2124466	1160	15.313500653126
9	2198366	1180	16.164138009232
9	2273658	1200	16.338387034323
9	2350254	1220	16.812827501119
9	2429683	1240	17.470075273469
9	2510890	1260	17.999098068783
9	2594733	1280	18.932283184507
9	2680030	1300	19.227027594017
9	2767254	1320	19.681047486979
9	2856464	1340	20.261728587689
9	2948387	1360	21.465733701372
9	3041599	1380	21.178213228281
9	3137306	1400	21.977840606097
9	3235011	1420	22.195513346319
9	3335023	1440	22.827477098703
9	3437756	1460	23.822529005098
9	3542281	1480	24.07277360109
9	3649055	1500	24.673414823975
9	3758135	1520	25.322556603675
9	3869430	1540	25.446349473681
9	3983623	1560	26.040500030897
9	4099488	1580	26.047714942627
9	4217466	1600	26.522996768192
9	4337727	1620	26.698065842046
9	4461041	1640	26.3779676856
9	4586350	1660	26.927836422265
9	4714730	1680	27.216390068147
9	4844707	1700	27.577986233141
9	4977639	1720	27.571629559283
9	5112899	1740	27.864994388059
9	5250782	1760	28.265520625504
9	5390323	1780	28.559546529562
9	5532854	1800	28.809095212663
9	5677517	1820	28.994856623548
9	5825033	1840	29.752730844994
9	5973713	1860	29.396911838192
9	6126060	1880	29.510391760946
9	6281163	1900	30.182455784315
9	6438885	1920	30.48535948381
9	6599154	1940	30.672046439874
9	6761556	1960	31.270824667549
9	6926784	1980	31.497451528897
9	7094705	2000	31.64265015788
10	145195	240	24.466082440766
10	171237	260	17.533613445378
10	198407	280	20.594871794872
10	225790	300	20.190977092099
10	253233	320	18.802562342713
10	280468	340	18.739831697055
10	307719	360	19.575840768703
10	335537	380	25.006578947368
10	363494	400	19.389613360787
10	391983	420	23.093309488744
10	420889	440	16.58397766323
10	450677	460	17.047575757576
10	481003	480	20.024646464646
10	511383	500	12.021584158416
10	542643	520	10.442632498544
10	574574	540	7.7273938701694
10	607215	560	15.683468104223
10	640653	580	13.656783468104
10	674806	600	7.6637277376124
10	710212	620	13.590992493745
10	746231	640	13.410258548791
10	783866	660	20.9542997543
10	822895	680	24.244449619624
10	862431	700	24.616624525917
10	903401	720	34.999542334096
10	945962	740	46.200265251989
10	989018	760	47.023872679045
10	1033126	780	49.595926506196
10	1079230	800	53.360714285714
10	1126108	820	64.619225037258
10	1173625	840	51.838292011019
10	1222865	860	73.458064516129
10	1273189	880	84.454857142857
10	1324818	900	91.721659792526
10	1377552	920	96.934793307087
10	1431884	940	99.022637795276
10	1487208	960	105.61007751938
10	1543489	980	117.34245449207
10	1601194	1000	127.87578070784
10	1660755	1020	145.14074074074
10	1721763	1040	163.74727668845
10	1784403	1060	160.40811507085
10	1848884	1080	180.26086956522
10	1915344	1100	198.52340425532
10	1983122	1120	189.83191489362
10	2052900	1140	225.69852369852
10	2124466	1160	234.5033022533
10	2198366	1180	261.27935758148
10	2273658	1200	266.94289088333
10	2350254	1220	282.67116858238
10	2429683	1240	305.20353006067
10	2510890	1260	323.96753128968
10	2594733	1280	358.43134657837
10	2680030	1300	369.67859010108
10	2767254	1320	387.34363018473
10	2856464	1340	410.53764536117
10	2948387	1360	460.77772333823
10	3041599	1380	448.51671554252
10	3137306	1400	483.02547770701
10	3235011	1420	492.6408127066
10	3335023	1440	521.09371069182
10	3437756	1460	567.51288819876
10	3542281	1480	579.49842884932
10	3649055	1500	608.77739907597
10	3758135	1520	641.23187294633
10	3869430	1540	647.51670153669
10	3983623	1560	678.10764185914
10	4099488	1580	678.48345373237
10	4217466	1600	703.46935756551
10	4337727	1620	712.78671970624
10	4461041	1640	695.79717922257
10	4586350	1660	725.10837438424
10	4714730	1680	740.73188834154
10	4844707	1700	760.54532467532
10	4977639	1720	760.19475655431
10	5112899	1740	776.45791224656
10	5250782	1760	798.93965623082
10	5390323	1780	815.64769797422
10	5532854	1800	829.96396697225
10	5677517	1820	840.7017106201
10	5825033	1840	885.22499273467
10	5973713	1860	864.17842562245
10	6126060	1880	870.8632218845
10	6281163	1900	910.98063717213
10	6438885	1920	929.35714285714
10	6599154	1940	940.77443280977
10	6761556	1960	977.8644753886
10	6926784	1980	992.08945281523
10	7094705	2000	1001.257309014
11	145195	240	516.74041654395
11	171237	260	422.40272092363
11	198407	280	370.00422676636
11	225790	300	565.51702729407
11	253233	320	417.5144509414
11	280468	340	379.04325137646
11	307719	360	366.02504094367
11	335537	380	516.42333627906
11	363494	400	423.40336386712
11	391983	420	799.49929598638
11	420889	440	289.97622696346
11	450677	460	474.96623183059
11	481003	480	467.6474310779
11	511383	500	373.47796432733
11	542643	520	564.71531004527
11	574574	540	435.46388796476
11	607215	560	383.79726074403
11	640653	580	565.20860364867
11	674806	600	706.56785460982
11	710212	620	851.10131086646
11	746231	640	520.07704984654
11	783866	660	481.32426365993
11	822895	680	426.16003980314
11	862431	700	673.65556731654
11	903401	720	483.56508772884
11	945962	740	571.7159013276
11	989018	760	468.95797809848
11	1033126	780	660.56822538039
11	1079230	800	612.62398105472
11	1126108	820	572.18423585455
11	1173625	840	516.128204437
11	1222865	860	477.73228199978
11	1273189	880	666.37068693845
11	1324818	900	523.22718238612
11	1377552	920	472.99390924279
11	1431884	940	378.89137020027
11	1487208	960	474.24449364679
11	1543489	980	972.96719053784
11	1601194	1000	714.28125005786
11	1660755	1020	379.69698633949
11	1721763	1040	523.41328389557
11	1784403	1060	809.28011673512
11	1848884	1080	626.56853906468
11	1915344	1100	822.36557717807
11	1983122	1120	766.25553320676
11	2052900	1140	617.82211187403
11	2124466	1160	814.08704462772
11	2198366	1180	576.15054018117
11	2273658	1200	617.3356659432
11	2350254	1220	632.10558841003
11	2429683	1240	868.51341105049
11	2510890	1260	579.95396344212
11	2594733	1280	764.49317380285
11	2680030	1300	712.97554169538
11	2767254	1320	1071.4256718221
11	2856464	1340	1107.2049216039
11	2948387	1360	766.24274233953
11	3041599	1380	667.99571458741
11	3137306	1400	723.08704516648
11	3235011	1420	620.51115806487
11	3335023	1440	713.56449891477
11	3437756	1460	663.62549994394
11	3542281	1480	533.00732695611
11	3649055	1500	822.82802193333
11	3758135	1520	917.21126329669
11	3869430	1540	621.26799048196
11	3983623	1560	1162.2232533235
11	4099488	1580	734.01309692971
11	4217466	1600	725.81598016778
11	4337727	1620	820.34416437508
11	4461041	1640	932.64799918625
11	4586350	1660	720.22002441207
11	4714730	1680	810.56287977031
11	4844707	1700	815.04531971348
11	4977639	1720	1260.5798729228
11	5112899	1740	924.06607619812
11	5250782	1760	1011.2225211367
11	5390323	1780	731.60599625957
11	5532854	1800	915.03920950643
11	5677517	1820	1007.3889322833
11	5825033	1840	1320.6845564339
11	5973713	1860	435.74487788942
11	6126060	1880	1174.1805382658
11	6281163	1900	851.85885337394
11	6438885	1920	974.24339235333
11	6599154	1940	1286.2315679025
11	6761556	1960	1023.5365298894
11	6926784	1980	830.91266155837
11	7094705	2000	824.77459652058
12	145195	240	46.976401503996
12	171237	260	46.933635658181
12	198407	280	46.250528345795
12	225790	300	47.126418941172
12	253233	320	46.390494549045
12	280468	340	47.380406422057
12	307719	360	45.753130117958
12	335537	380	46.947576025369
12	363494	400	47.044818207458
12	391983	420	47.02937035214
12	420889	440	48.329371160577
12	450677	460	47.496623183059
12	481003	480	46.76474310779
12	511383	500	46.684745540916
12	542643	520	47.059609170439
12	574574	540	48.384876440529
12	607215	560	47.974657593004
12	640653	580	47.100716970723
12	674806	600	47.104523640654
12	710212	620	47.283406159248
12	746231	640	47.279731804231
12	783866	660	48.132426365993
12	822895	680	47.351115533683
12	862431	700	48.118254808324
12	903401	720	48.356508772884
12	945962	740	47.6429917773
12	989018	760	46.895797809848
12	1033126	780	47.183444670028
12	1079230	800	47.124921619594
12	1126108	820	47.682019654546
12	1173625	840	46.920745857909
12	1222865	860	47.773228199978
12	1273189	880	47.597906209889
12	1324818	900	47.566107489647
12	1377552	920	47.299390924279
12	1431884	940	47.361421275034
12	1487208	960	47.424449364679
12	1543489	980	48.648359526892
12	1601194	1000	47.618750003858
12	1660755	1020	47.462123292437
12	1721763	1040	47.583025808688
12	1784403	1060	47.604712749125
12	1848884	1080	48.197579928052
12	1915344	1100	48.374445716357
12	1983122	1120	47.890970825423
12	2052900	1140	47.524777836464
12	2124466	1160	47.887473213396
12	2198366	1180	48.012545015098
12	2273658	1200	47.487358918708
12	2350254	1220	48.623506800771
12	2429683	1240	48.250745058361