file 72597 1427454781                                           
version 2
run statisticRVV-167-20150327-11:12:26-17080
attr c 10
attr configname statisticRVV
attr datetime 20150327-11:12:26
attr experiment statisticRVV
attr inifile omnetpp.ini
attr iterationvars "$sc=\"erlangen-medium.launchd.xml\", $p=1/10, $c=10"
attr iterationvars2 "$sc=\"erlangen-medium.launchd.xml\", $p=1/10, $c=10, $repetition=7"
attr measurement "$sc=\"erlangen-medium.launchd.xml\", $p=1/10, $c=10"
attr network RSUExampleScenario
attr p 1/10
attr processid 17080
attr repetition 7
attr replication #7
attr resultdir results
attr runnumber 167
attr sc "\"erlangen-medium.launchd.xml\""
attr seedset 167

vector 0  RSUExampleScenario.rsu[0].appl  Number_CH  ETV
vector 1  RSUExampleScenario.rsu[0].appl  Number_ON  ETV
vector 2  RSUExampleScenario.rsu[0].appl  Number_FN  ETV
vector 3  RSUExampleScenario.rsu[0].appl  Number_CH_Losts  ETV
vector 4  RSUExampleScenario.rsu[0].appl  Number_CH_Losts  ETV
vector 5  RSUExampleScenario.rsu[0].appl  Mean_Cluster_Size  ETV
vector 6  RSUExampleScenario.rsu[0].appl  StdDev_Cluster_Size  ETV
vector 7  RSUExampleScenario.rsu[0].appl  Variance_Cluster_Size  ETV
vector 8  RSUExampleScenario.rsu[0].appl  Mean_Neighbors  ETV
vector 9  RSUExampleScenario.rsu[0].appl  StdDev_Neighbors  ETV
vector 10  RSUExampleScenario.rsu[0].appl  Variance_Neighbors  ETV
vector 11  RSUExampleScenario.rsu[0].appl  Total_CH_Utility  ETV
vector 12  RSUExampleScenario.rsu[0].appl  Mean_CH_Utility  ETV
vector 13  RSUExampleScenario.rsu[0].appl  StdDev_CH_Utility  ETV
vector 14  RSUExampleScenario.rsu[0].appl  Variance_CH_Utility  ETV
vector 15  RSUExampleScenario.rsu[0].appl  Total_exp_CH_Utility  ETV
vector 16  RSUExampleScenario.rsu[0].appl  Mean_exp_CH_Utility  ETV
vector 17  RSUExampleScenario.rsu[0].appl  StdDev_exp_CH_Utility  ETV
vector 18  RSUExampleScenario.rsu[0].appl  Variance_exp_CH_Utility  ETV
vector 19  RSUExampleScenario.rsu[0].appl  Total_ON_Utility  ETV
vector 20  RSUExampleScenario.rsu[0].appl  Mean_ON_Utility  ETV
vector 21  RSUExampleScenario.rsu[0].appl  StdDev_ON_Utility  ETV
vector 22  RSUExampleScenario.rsu[0].appl  Variance_ON_Utility  ETV
vector 23  RSUExampleScenario.rsu[0].appl  Total_exp_ON_Utility  ETV
vector 24  RSUExampleScenario.rsu[0].appl  Mean_exp_ON_Utility  ETV
vector 25  RSUExampleScenario.rsu[0].appl  StdDev_exp_ON_Utility  ETV
vector 26  RSUExampleScenario.rsu[0].appl  Variance_exp_ON_Utility  ETV
0	2440 1607 145025 6967930 240 2000 89 5 24 1240 19250
1	4047 1667 145025 6967930 240 2000 89 36 153 8260 835566
2	5714 1613 145025 6967930 240 2000 89 1 83 2926 127896
3	7327 1537 145025 6967930 240 2000 89 0 3 35 53
4	8864 1613 145025 6967930 240 2000 89 1 83 2880 124998
5	10477 2419 145025 6967930 240 2000 89 4.4615384615385 9.4 613.56346403425 4369.3431338765
6	12896 2775 145025 6967930 240 2000 89 0.54772255750517 3.4406533155921 215.57076969 558.73831298355
7	15671 2677 145025 6967930 240 2000 89 0.3 11.838095238095 558.73831298355 4183.8716245919
8	18348 2698 145025 6967930 240 2000 89 21.852631578947 61.051546391753 3352.5207462015 141105.41844145
9	21046 2772 145025 6967930 240 2000 89 2.519947374627 31.459117687551 1367.6664890621 29418.785773378
10	23818 2847 145025 6967930 240 2000 89 6.3501347708895 989.67608567918 29418.785773378 19115971.180266
11	26665 2864 145025 6967930 240 2000 89 232.28374070069 1195.8250140262 59726.654853908 44886201.589014
12	29529 2859 145025 6967930 240 2000 89 45.860200399562 49.82604225109 4272.8121202754 205195.77669915
13	32388 2862 145025 6967930 240 2000 89 0.6283473717449 3.3835478864605 174.74434956503 368.6792143234
14	35250 2865 145025 6967930 240 2000 89 0.39482041957872 11.448396299971 368.6792143234 1960.1254066478
15	38115 2861 145025 6967930 240 2000 89 223.83688696327 1140.5848167158 58157.480953301 42319135.767883
16	40976 2866 145025 6967930 240 2000 89 44.610469739088 46.705054412047 4061.4236541683 185352.07191706
17	43842 2897 145025 6967930 240 2000 89 0.28438980912888 1.7792368766398 93.453632705699 105.86884357345
18	46739 2899 145025 6967930 240 2000 89 0.080877563536358 3.1656838631948 105.86884357345 159.18100126374
19	49638 2857 145025 6967930 240 2000 89 1760.1697907425 7354.0613213788 396483.70300194 1934242063.9061
20	52495 2859 145025 6967930 240 2000 89 45.942370131788 49.211554849197 4259.3826248205 203899.30885869
21	55354 2863 145025 6967930 240 2000 89 1.6879931030379 3.5750976708556 247.10531454686 698.79659289267
22	58217 2858 145025 6967930 240 2000 89 2.8493207159035 12.781323356157 698.79659289267 5872.4653731087
23	61075 2862 145025 6967930 240 2000 89 3273.3824847265 8195.8386258528 507432.63962608 3050935116.1576
24	63937 2862 145025 6967930 240 2000 89 44.840855955157 45.744004241683 4051.2376525611 184414.27388081
25	66799 2900 145025 6967930 240 2000 89 0.4888818533312 1.3983449580794 90.727053418195 95.917854059778
26	69699 2898 145025 6967930 240 2000 89 0.23900546651655 1.955368621786 95.917854059778 116.67446202293
