version 2
run statisticRVV-45-20150327-02:01:19-11576
attr c 10
attr configname statisticRVV
attr datetime 20150327-02:01:19
attr experiment statisticRVV
attr inifile omnetpp.ini
attr iterationvars "$sc=\"erlangen-low.launchd.xml\", $p=1/10, $c=10"
attr iterationvars2 "$sc=\"erlangen-low.launchd.xml\", $p=1/10, $c=10, $repetition=5"
attr measurement "$sc=\"erlangen-low.launchd.xml\", $p=1/10, $c=10"
attr network RSUExampleScenario
attr p 1/10
attr processid 11576
attr repetition 5
attr replication #5
attr resultdir results
attr runnumber 45
attr sc "\"erlangen-low.launchd.xml\""
attr seedset 45

vector 0  RSUExampleScenario.rsu[0].appl  Number_CH  ETV
vector 1  RSUExampleScenario.rsu[0].appl  Number_ON  ETV
vector 2  RSUExampleScenario.rsu[0].appl  Number_FN  ETV
vector 3  RSUExampleScenario.rsu[0].appl  Number_CH_Losts  ETV
vector 4  RSUExampleScenario.rsu[0].appl  Number_CH_Losts  ETV
vector 5  RSUExampleScenario.rsu[0].appl  Mean_Cluster_Size  ETV
vector 6  RSUExampleScenario.rsu[0].appl  StdDev_Cluster_Size  ETV
vector 7  RSUExampleScenario.rsu[0].appl  Variance_Cluster_Size  ETV
vector 8  RSUExampleScenario.rsu[0].appl  Mean_Neighbors  ETV
vector 9  RSUExampleScenario.rsu[0].appl  StdDev_Neighbors  ETV
vector 10  RSUExampleScenario.rsu[0].appl  Variance_Neighbors  ETV
vector 11  RSUExampleScenario.rsu[0].appl  Total_CH_Utility  ETV
vector 12  RSUExampleScenario.rsu[0].appl  Mean_CH_Utility  ETV
vector 13  RSUExampleScenario.rsu[0].appl  StdDev_CH_Utility  ETV
vector 14  RSUExampleScenario.rsu[0].appl  Variance_CH_Utility  ETV
vector 15  RSUExampleScenario.rsu[0].appl  Total_exp_CH_Utility  ETV
vector 16  RSUExampleScenario.rsu[0].appl  Mean_exp_CH_Utility  ETV
vector 17  RSUExampleScenario.rsu[0].appl  StdDev_exp_CH_Utility  ETV
vector 18  RSUExampleScenario.rsu[0].appl  Variance_exp_CH_Utility  ETV
vector 19  RSUExampleScenario.rsu[0].appl  Total_ON_Utility  ETV
vector 20  RSUExampleScenario.rsu[0].appl  Mean_ON_Utility  ETV
vector 21  RSUExampleScenario.rsu[0].appl  StdDev_ON_Utility  ETV
vector 22  RSUExampleScenario.rsu[0].appl  Variance_ON_Utility  ETV
vector 23  RSUExampleScenario.rsu[0].appl  Total_exp_ON_Utility  ETV
vector 24  RSUExampleScenario.rsu[0].appl  Mean_exp_ON_Utility  ETV
vector 25  RSUExampleScenario.rsu[0].appl  StdDev_exp_ON_Utility  ETV
vector 26  RSUExampleScenario.rsu[0].appl  Variance_exp_ON_Utility  ETV
0	34790	240	6
0	40087	260	4
0	45467	280	4
0	50707	300	7
0	55955	320	5
0	61380	340	6
0	66683	360	6
0	72004	380	2
0	77227	400	5
0	82600	420	2
0	87933	440	2
0	93309	460	2
0	98631	480	3
0	103939	500	5
0	109296	520	7
0	114620	540	1
0	119968	560	3
0	125197	580	2
0	130493	600	5
0	135796	620	4
0	141088	640	4
0	146372	660	4
0	151764	680	7
0	156997	700	2
0	162412	720	6
0	167806	740	0
0	172991	760	6
0	178414	780	3
0	183668	800	5
0	188962	820	6
0	194273	840	3
0	199629	860	1
0	205073	880	3
0	210400	900	6
0	215804	920	6
0	221108	940	3
0	226411	960	3
0	231763	980	6
0	237129	1000	5
0	242462	1020	4
0	247844	1040	4
0	253179	1060	5
0	258584	1080	2
0	263811	1100	3
0	269073	1120	10
0	274223	1140	4
0	279583	1160	3
0	284872	1180	4
0	290229	1200	4
0	295489	1220	5
0	300844	1240	3
0	306161	1260	4
0	311487	1280	2
0	316860	1300	1
0	322261	1320	1
0	327596	1340	2
0	332856	1360	4
0	338193	1380	3
0	343518	1400	4
0	348875	1420	6
0	354282	1440	6
0	359625	1460	6
0	364934	1480	2
0	370255	1500	1
0	375544	1520	4
0	380878	1540	3
0	386265	1560	4
0	391604	1580	1
0	396923	1600	5
0	402205	1620	3
0	407544	1640	3
0	412893	1660	3
0	418212	1680	2
0	423535	1700	3
0	428872	1720	5
0	434160	1740	3
0	439476	1760	6
0	444814	1780	3
0	450092	1800	5
0	454967	1820	1
0	459255	1840	3
0	463058	1860	0
0	466378	1880	1
0	469318	1900	3
0	471703	1920	3
0	473699	1940	2
0	475200	1960	1
0	476259	1980	0
0	476878	2000	0
1	34790	240	19
1	40087	260	8
1	45467	280	11
1	50707	300	15
1	55955	320	11
1	61380	340	17
1	66683	360	16
1	72004	380	7
1	77227	400	9
1	82600	420	10
1	87933	440	11
1	93309	460	10
1	98631	480	11
1	103939	500	17
1	109296	520	18
1	114620	540	5
1	119968	560	9
1	125197	580	8
1	130493	600	11
1	135796	620	10
1	141088	640	11
1	146372	660	6
1	151764	680	13
1	156997	700	4
1	162412	720	15
1	167806	740	0
1	172991	760	12
1	178414	780	4
1	183668	800	16
1	188962	820	13
1	194273	840	11
1	199629	860	1
1	205073	880	8
1	210400	900	14
1	215804	920	14
1	221108	940	6
1	226411	960	11
1	231763	980	15
1	237129	1000	12
1	242462	1020	10
1	247844	1040	5
1	253179	1060	10
1	258584	1080	6
1	263811	1100	14
1	269073	1120	18
1	274223	1140	12
1	279583	1160	10
1	284872	1180	13
1	290229	1200	16
1	295489	1220	14
1	300844	1240	11
1	306161	1260	10
1	311487	1280	5
1	316860	1300	2
1	322261	1320	5
1	327596	1340	9
1	332856	1360	9
1	338193	1380	11
1	343518	1400	11
1	348875	1420	12
1	354282	1440	21
1	359625	1460	16
1	364934	1480	10
1	370255	1500	3
1	375544	1520	11
1	380878	1540	11
1	386265	1560	12
1	391604	1580	4
1	396923	1600	16
1	402205	1620	7
1	407544	1640	9
1	412893	1660	10
1	418212	1680	8
1	423535	1700	10
1	428872	1720	17
1	434160	1740	7
1	439476	1760	19
1	444814	1780	11
1	450092	1800	14
1	454967	1820	2
1	459255	1840	6
1	463058	1860	0
1	466378	1880	3
1	469318	1900	6
1	471703	1920	6
1	473699	1940	3
1	475200	1960	2
1	476259	1980	0
1	476878	2000	0
2	34790	240	15
2	40087	260	29
2	45467	280	27
2	50707	300	17
2	55955	320	25
2	61380	340	18
2	66683	360	19
2	72004	380	30
2	77227	400	26
2	82600	420	28
2	87933	440	27
2	93309	460	29
2	98631	480	27
2	103939	500	18
2	109296	520	15
2	114620	540	33
2	119968	560	29
2	125197	580	30
2	130493	600	24
2	135796	620	26
2	141088	640	24
2	146372	660	31
2	151764	680	20
2	156997	700	34
2	162412	720	20
2	167806	740	40
2	172991	760	22
2	178414	780	34
2	183668	800	20
2	188962	820	22
2	194273	840	26
2	199629	860	39
2	205073	880	29
2	210400	900	20
2	215804	920	21
2	221108	940	31
2	226411	960	26
2	231763	980	20
2	237129	1000	25
2	242462	1020	27
2	247844	1040	33
2	253179	1060	25
2	258584	1080	33
2	263811	1100	24
2	269073	1120	13
2	274223	1140	23
2	279583	1160	27
2	284872	1180	23
2	290229	1200	20
2	295489	1220	21
2	300844	1240	27
2	306161	1260	27
2	311487	1280	33
2	316860	1300	37
2	322261	1320	33
2	327596	1340	29
2	332856	1360	27
2	338193	1380	26
2	343518	1400	26
2	348875	1420	23
2	354282	1440	13
2	359625	1460	19
2	364934	1480	29
2	370255	1500	37
2	375544	1520	24
2	380878	1540	25
2	386265	1560	24
2	391604	1580	35
2	396923	1600	19
2	402205	1620	30
2	407544	1640	29
2	412893	1660	27
2	418212	1680	30
2	423535	1700	27
2	428872	1720	19
2	434160	1740	31
2	439476	1760	15
2	444814	1780	26
2	450092	1800	22
2	454967	1820	34
2	459255	1840	25
2	463058	1860	30
2	466378	1880	23
2	469318	1900	15
2	471703	1920	12
2	473699	1940	12
2	475200	1960	12
2	476259	1980	11
2	476878	2000	8
3	34790	240	0
3	40087	260	0
3	45467	280	0
3	50707	300	2
3	55955	320	0
3	61380	340	0
3	66683	360	1
3	72004	380	0
3	77227	400	0
3	82600	420	0
3	87933	440	0
3	93309	460	0
3	98631	480	0
3	103939	500	0
3	109296	520	0
3	114620	540	0
3	119968	560	0
3	125197	580	1
3	130493	600	0
3	135796	620	0
3	141088	640	1
3	146372	660	0
3	151764	680	0
3	156997	700	0
3	162412	720	1
3	167806	740	0
3	172991	760	2
3	178414	780	0
3	183668	800	0
3	188962	820	1
3	194273	840	1
3	199629	860	1
3	205073	880	0
3	210400	900	1
3	215804	920	1
3	221108	940	0
3	226411	960	0
3	231763	980	2
3	237129	1000	1
3	242462	1020	0
3	247844	1040	0
3	253179	1060	0
3	258584	1080	0
3	263811	1100	0
3	269073	1120	0
3	274223	1140	0
3	279583	1160	0
3	284872	1180	0
3	290229	1200	0
3	295489	1220	1
3	300844	1240	0
3	306161	1260	0
3	311487	1280	0
3	316860	1300	0
3	322261	1320	0
3	327596	1340	0
3	332856	1360	0
3	338193	1380	0
3	343518	1400	1
3	348875	1420	0
3	354282	1440	0
3	359625	1460	1
3	364934	1480	1
3	370255	1500	0
3	375544	1520	0
3	380878	1540	0
3	386265	1560	0
3	391604	1580	0
3	396923	1600	0
3	402205	1620	0
3	407544	1640	1
3	412893	1660	0
3	418212	1680	0
3	423535	1700	0
3	428872	1720	1
3	434160	1740	2
3	439476	1760	1
3	444814	1780	0
3	450092	1800	0
3	454967	1820	0
3	459255	1840	0
3	463058	1860	0
3	466378	1880	0
3	469318	1900	0
3	471703	1920	1
3	473699	1940	0
3	475200	1960	0
3	476259	1980	0
3	476878	2000	0
4	34790	240	15
4	40087	260	29
4	45467	280	25
4	50707	300	15
4	55955	320	25
4	61380	340	18
4	66683	360	18
4	72004	380	30
4	77227	400	26
4	82600	420	28
4	87933	440	26
4	93309	460	29
4	98631	480	27
4	103939	500	18
4	109296	520	14
4	114620	540	33
4	119968	560	29
4	125197	580	29
4	130493	600	24
4	135796	620	26
4	141088	640	23
4	146372	660	31
4	151764	680	20
4	156997	700	34
4	162412	720	19
4	167806	740	40
4	172991	760	20
4	178414	780	34
4	183668	800	20
4	188962	820	20
4	194273	840	25
4	199629	860	38
4	205073	880	29
4	210400	900	19
4	215804	920	19
4	221108	940	30
4	226411	960	25
4	231763	980	18
4	237129	1000	24
4	242462	1020	27
4	247844	1040	32
4	253179	1060	25
4	258584	1080	33
4	263811	1100	24
4	269073	1120	13
4	274223	1140	23
4	279583	1160	27
4	284872	1180	23
4	290229	1200	20
4	295489	1220	20
4	300844	1240	27
4	306161	1260	27
4	311487	1280	32
4	316860	1300	37
4	322261	1320	33
4	327596	1340	29
4	332856	1360	27
4	338193	1380	26
4	343518	1400	24
4	348875	1420	23
4	354282	1440	13
4	359625	1460	18
4	364934	1480	28
4	370255	1500	37
4	375544	1520	24
4	380878	1540	25
4	386265	1560	23
4	391604	1580	35
4	396923	1600	19
4	402205	1620	30
4	407544	1640	28
4	412893	1660	27
4	418212	1680	30
4	423535	1700	27
4	428872	1720	18
4	434160	1740	29
4	439476	1760	14
4	444814	1780	25
4	450092	1800	22
4	454967	1820	34
4	459255	1840	25
4	463058	1860	30
4	466378	1880	23
4	469318	1900	15
4	471703	1920	11
4	473699	1940	12
4	475200	1960	12
4	476259	1980	11
4	476878	2000	8
5	34790	240	3.1666666666667
5	40087	260	2
5	45467	280	2.75
5	50707	300	2.1428571428571
5	55955	320	2.2
5	61380	340	2.8333333333333
5	66683	360	2.6666666666667
5	72004	380	3.5
5	77227	400	1.8
5	82600	420	5
5	87933	440	5.5
5	93309	460	5
5	98631	480	3.6666666666667
5	103939	500	3.4
5	109296	520	2.5714285714286
5	114620	540	5
5	119968	560	3
5	125197	580	4
5	130493	600	2.2
5	135796	620	2.5
5	141088	640	2.75
5	146372	660	1.5
5	151764	680	1.8571428571429
5	156997	700	2
5	162412	720	2.5
5	167806	740	nan
5	172991	760	2
5	178414	780	1.3333333333333
5	183668	800	3.2
5	188962	820	2.1666666666667
5	194273	840	3.6666666666667
5	199629	860	1
5	205073	880	2.6666666666667
5	210400	900	2.3333333333333
5	215804	920	2.3333333333333
5	221108	940	2
5	226411	960	3.6666666666667
5	231763	980	2.5
5	237129	1000	2.4
5	242462	1020	2.5
5	247844	1040	1.25
5	253179	1060	2
5	258584	1080	3
5	263811	1100	4.6666666666667
5	269073	1120	1.8
5	274223	1140	3
5	279583	1160	3.3333333333333
5	284872	1180	3.25
5	290229	1200	4
5	295489	1220	2.8
5	300844	1240	3.6666666666667
5	306161	1260	2.5
5	311487	1280	2.5
5	316860	1300	2
5	322261	1320	5
5	327596	1340	4.5
5	332856	1360	2.25
5	338193	1380	3.6666666666667
5	343518	1400	2.75
5	348875	1420	2
5	354282	1440	3.5
5	359625	1460	2.6666666666667
5	364934	1480	5
5	370255	1500	3
5	375544	1520	2.75
5	380878	1540	3.6666666666667
5	386265	1560	3
5	391604	1580	4
5	396923	1600	3.2
5	402205	1620	2.3333333333333
5	407544	1640	3
5	412893	1660	3.3333333333333
5	418212	1680	4
5	423535	1700	3.3333333333333
5	428872	1720	3.4
5	434160	1740	2.3333333333333
5	439476	1760	3.1666666666667
5	444814	1780	3.6666666666667
5	450092	1800	2.8
5	454967	1820	2
5	459255	1840	2
5	463058	1860	nan
5	466378	1880	3
5	469318	1900	2
5	471703	1920	2
5	473699	1940	1.5
5	475200	1960	2
5	476259	1980	nan
5	476878	2000	nan
6	34790	240	1.16904519445
6	40087	260	1.4142135623731
6	45467	280	0.5
6	50707	300	1.0690449676497
6	55955	320	0.44721359549996
6	61380	340	1.7224014243685
6	66683	360	1.5055453054182
6	72004	380	0.70710678118655
6	77227	400	1.0954451150103
6	82600	420	2.8284271247462
6	87933	440	6.3639610306789
6	93309	460	1.4142135623731
6	98631	480	2.5166114784236
6	103939	500	0.89442719099992
6	109296	520	0.97590007294853
6	114620	540	nan
6	119968	560	2
6	125197	580	2.8284271247462
6	130493	600	1.3038404810405
6	135796	620	1.2909944487358
6	141088	640	1.7078251276599
6	146372	660	0.57735026918963
6	151764	680	0.89973541084244
6	156997	700	0
6	162412	720	2.3452078799117
6	167806	740	nan
6	172991	760	1.549193338483
6	178414	780	0.57735026918963
6	183668	800	2.2803508501983
6	188962	820	0.98319208025018
6	194273	840	1.5275252316519
6	199629	860	nan
6	205073	880	2.0816659994661
6	210400	900	1.0327955589886
6	215804	920	0.51639777949432
6	221108	940	1
6	226411	960	2.8867513459481
6	231763	980	1.6431676725155
6	237129	1000	1.6733200530682
6	242462	1020	1.2909944487358
6	247844	1040	0.5
6	253179	1060	1.2247448713916
6	258584	1080	1.4142135623731
6	263811	1100	2.5166114784236
6	269073	1120	0.78881063774662
6	274223	1140	2.7080128015453
6	279583	1160	2.3094010767585
6	284872	1180	2.5
6	290229	1200	2.1602468994693
6	295489	1220	1.4832396974191
6	300844	1240	1.5275252316519
6	306161	1260	1.7320508075689
6	311487	1280	2.1213203435596
6	316860	1300	nan
6	322261	1320	nan
6	327596	1340	3.5355339059327
6	332856	1360	1.2583057392118
6	338193	1380	3.7859388972002
6	343518	1400	1.7078251276599
6	348875	1420	1.2649110640674
6	354282	1440	1.7606816861659
6	359625	1460	1.5055453054182
6	364934	1480	1.4142135623731
6	370255	1500	nan
6	375544	1520	0.5
6	380878	1540	1.5275252316519
6	386265	1560	2.1602468994693
6	391604	1580	nan
6	396923	1600	1.7888543819998
6	402205	1620	1.5275252316519
6	407544	1640	2
6	412893	1660	2.3094010767585
6	418212	1680	2.8284271247462
6	423535	1700	0.57735026918963
6	428872	1720	0.54772255750517
6	434160	1740	1.1547005383793
6	439476	1760	1.6020819787597
6	444814	1780	3.0550504633039
6	450092	1800	1.4832396974191
6	454967	1820	nan
6	459255	1840	0
6	463058	1860	nan
6	466378	1880	nan
6	469318	1900	1
6	471703	1920	0
6	473699	1940	0.70710678118655
6	475200	1960	nan
6	476259	1980	nan
6	476878	2000	nan
7	34790	240	1.3666666666667
7	40087	260	2
7	45467	280	0.25
7	50707	300	1.1428571428571
7	55955	320	0.2
7	61380	340	2.9666666666667
7	66683	360	2.2666666666667
7	72004	380	0.5
7	77227	400	1.2
7	82600	420	8
7	87933	440	40.5
7	93309	460	2
7	98631	480	6.3333333333333
7	103939	500	0.8
7	109296	520	0.95238095238095
7	114620	540	nan
7	119968	560	4
7	125197	580	8
7	130493	600	1.7
7	135796	620	1.6666666666667
7	141088	640	2.9166666666667
7	146372	660	0.33333333333333
7	151764	680	0.80952380952381
7	156997	700	0
7	162412	720	5.5
7	167806	740	nan
7	172991	760	2.4
7	178414	780	0.33333333333333
7	183668	800	5.2
7	188962	820	0.96666666666667
7	194273	840	2.3333333333333
7	199629	860	nan
7	205073	880	4.3333333333333
7	210400	900	1.0666666666667
7	215804	920	0.26666666666667
7	221108	940	1
7	226411	960	8.3333333333333
7	231763	980	2.7
7	237129	1000	2.8
7	242462	1020	1.6666666666667
7	247844	1040	0.25
7	253179	1060	1.5
7	258584	1080	2
7	263811	1100	6.3333333333333
7	269073	1120	0.62222222222222
7	274223	1140	7.3333333333333
7	279583	1160	5.3333333333333
7	284872	1180	6.25
7	290229	1200	4.6666666666667
7	295489	1220	2.2
7	300844	1240	2.3333333333333
7	306161	1260	3
7	311487	1280	4.5
7	316860	1300	nan
7	322261	1320	nan
7	327596	1340	12.5
7	332856	1360	1.5833333333333
7	338193	1380	14.333333333333
7	343518	1400	2.9166666666667
7	348875	1420	1.6
7	354282	1440	3.1
7	359625	1460	2.2666666666667
7	364934	1480	2
7	370255	1500	nan
7	375544	1520	0.25
7	380878	1540	2.3333333333333
7	386265	1560	4.6666666666667
7	391604	1580	nan
7	396923	1600	3.2
7	402205	1620	2.3333333333333
7	407544	1640	4
7	412893	1660	5.3333333333333
7	418212	1680	8
7	423535	1700	0.33333333333333
7	428872	1720	0.3
7	434160	1740	1.3333333333333
7	439476	1760	2.5666666666667
7	444814	1780	9.3333333333333
7	450092	1800	2.2
7	454967	1820	nan
7	459255	1840	0
7	463058	1860	nan
7	466378	1880	nan
7	469318	1900	1
7	471703	1920	0
7	473699	1940	0.5
7	475200	1960	nan
7	476259	1980	nan
7	476878	2000	nan
8	34790	240	8.925
8	40087	260	9.0975609756098
8	45467	280	9.15
8	50707	300	9.025641025641
8	55955	320	8.8536585365854
8	61380	340	8.8292682926829
8	66683	360	8.9268292682927
8	72004	380	9.2051282051282
8	77227	400	9.025
8	82600	420	9.2
8	87933	440	9.2564102564103
8	93309	460	8.9512195121951
8	98631	480	8.9512195121951
8	103939	500	9.05
8	109296	520	9.3333333333333
8	114620	540	9.3589743589744
8	119968	560	9.0975609756098
8	125197	580	8.925
8	130493	600	8.95
8	135796	620	8.925
8	141088	640	9.025641025641
8	146372	660	8.9268292682927
8	151764	680	9.125
8	156997	700	9.025
8	162412	720	9.25
8	167806	740	9
8	172991	760	8.825
8	178414	780	9.1463414634146
8	183668	800	8.7560975609756
8	188962	820	9.1538461538462
8	194273	840	8.825
8	199629	860	9.0487804878049
8	205073	880	9.025
8	210400	900	9.15
8	215804	920	9.275
8	221108	940	8.9487179487179
8	226411	960	9.1282051282051
8	231763	980	8.9024390243902
8	237129	1000	9
8	242462	1020	8.7317073170732
8	247844	1040	9
8	253179	1060	9.15
8	258584	1080	9
8	263811	1100	8.780487804878
8	269073	1120	8.7560975609756
8	274223	1140	8.974358974359
8	279583	1160	9
8	284872	1180	8.975
8	290229	1200	9.2
8	295489	1220	8.75
8	300844	1240	8.9756097560976
8	306161	1260	8.8780487804878
8	311487	1280	9.1538461538462
8	316860	1300	9.05
8	322261	1320	9.4358974358974
8	327596	1340	8.9
8	332856	1360	8.925
8	338193	1380	8.975
8	343518	1400	8.9
8	348875	1420	9.0487804878049
8	354282	1440	9.175
8	359625	1460	9.0243902439024
8	364934	1480	8.7560975609756
8	370255	1500	8.9512195121951
8	375544	1520	9.1282051282051
8	380878	1540	9.0512820512821
8	386265	1560	9.3333333333333
8	391604	1580	8.95
8	396923	1600	9.1
8	402205	1620	9.025
8	407544	1640	8.780487804878
8	412893	1660	9.2
8	418212	1680	9.025
8	423535	1700	9
8	428872	1720	8.6829268292683
8	434160	1740	9.0243902439024
8	439476	1760	8.925
8	444814	1780	9.0512820512821
8	450092	1800	8.6829268292683
8	454967	1820	8.8108108108108
8	459255	1840	8.4411764705882
8	463058	1860	8.5
8	466378	1880	8.3333333333333
8	469318	1900	8.2083333333333
8	471703	1920	8.047619047619
8	473699	1940	7.5294117647059
8	475200	1960	7.1333333333333
8	476259	1980	6.4545454545455
8	476878	2000	5.5
9	34790	240	2.2914277264712
9	40087	260	1.6401962999711
9	45467	280	1.5114944209673
9	50707	300	1.9123859372547
9	55955	320	1.8915730967869
9	61380	340	2.1083457854962
9	66683	360	1.979775794155
9	72004	380	1.3014058628933
9	77227	400	1.4760915126936
9	82600	420	1.9108328161517
9	87933	440	1.3710915497467
9	93309	460	2.1441923830687
9	98631	480	2.0242433093899
9	103939	500	2.3088458655288
9	109296	520	1.6754156331668
9	114620	540	1.347261930677
9	119968	560	1.5938142622147
9	125197	580	1.5087352489029
9	130493	600	1.1535897150934
9	135796	620	1.7742820866697
9	141088	640	1.9799944110392
9	146372	660	1.7232272616001
9	151764	680	1.7274184087749
9	156997	700	1.5440124218977
9	162412	720	1.6602440351979
9	167806	740	1.5851878478024
9	172991	760	1.599479081868
9	178414	780	1.6056303374338
9	183668	800	1.8544606736849
9	188962	820	1.5137694592336
9	194273	840	1.8931387585104
9	199629	860	1.5321752431134
9	205073	880	1.6561849890482
9	210400	900	1.3502136583063
9	215804	920	1.3006408676751
9	221108	940	2.1392167522461
9	226411	960	1.5590058772295
9	231763	980	2.1307848090408
9	237129	1000	2.0124611797498
9	242462	1020	1.9238553771516
9	247844	1040	2.0124611797498
9	253179	1060	2.0822817859016
9	258584	1080	2.0248456731317
9	263811	1100	1.837283254182
9	269073	1120	2.1997782593352
9	274223	1140	1.7394369852458
9	279583	1160	1.9081471748861
9	284872	1180	1.6868647902286
9	290229	1200	1.7126976771554
9	295489	1220	1.9181989415822
9	300844	1240	1.968347084206
9	306161	1260	2.0639176576504
9	311487	1280	1.6309258193861
9	316860	1300	1.1311441904051
9	322261	1320	1.2522584186575
9	327596	1340	1.836942833721
9	332856	1360	1.7004901254246
9	338193	1380	1.7318657495196
9	343518	1400	1.7364862842489
9	348875	1420	2.0487950057558
9	354282	1440	1.6929340332764
9	359625	1460	1.890605787546
9	364934	1480	2.0221336232415
9	370255	1500	1.5961080714067
9	375544	1520	1.3988620785159
9	380878	1540	1.6850537700107
9	386265	1560	1.7966831037884
9	391604	1580	2.0248456731317
9	396923	1600	1.6763819404469
9	402205	1620	2.1895731933943
9	407544	1640	1.9301838658785
9	412893	1660	1.4535544409552
9	418212	1680	1.9412855904245
9	423535	1700	1.6172150801253
9	428872	1720	2.1146988484208
9	434160	1740	1.6505727017925
9	439476	1760	1.7886752009124
9	444814	1780	2.1268795767845
9	450092	1800	2.054738722931
9	454967	1820	1.2875005466631
9	459255	1840	1.6549499025758
9	463058	1860	1.5028708160235
9	466378	1880	1.6408253082847
9	469318	1900	1.7440374613714
9	471703	1920	1.8296499795368
9	473699	1940	1.8411153908305
9	475200	1960	1.2459458063579
9	476259	1980	1.2135597524338
9	476878	2000	1.4142135623731
10	34790	240	5.250641025641
10	40087	260	2.690243902439
10	45467	280	2.2846153846154
10	50707	300	3.6572199730094
10	55955	320	3.5780487804878
10	61380	340	4.4451219512195
10	66683	360	3.919512195122
10	72004	380	1.693657219973
10	77227	400	2.1788461538462
10	82600	420	3.6512820512821
10	87933	440	1.8798920377868
10	93309	460	4.5975609756098
10	98631	480	4.0975609756098
10	103939	500	5.3307692307692
10	109296	520	2.8070175438596
10	114620	540	1.8151147098516
10	119968	560	2.540243902439
10	125197	580	2.2762820512821
10	130493	600	1.3307692307692
10	135796	620	3.1480769230769
10	141088	640	3.9203778677463
10	146372	660	2.969512195122
10	151764	680	2.9839743589744
10	156997	700	2.3839743589744
10	162412	720	2.7564102564103
10	167806	740	2.5128205128205
10	172991	760	2.5583333333333
10	178414	780	2.5780487804878
10	183668	800	3.4390243902439
10	188962	820	2.2914979757085
10	194273	840	3.5839743589744
10	199629	860	2.3475609756098
10	205073	880	2.7429487179487
10	210400	900	1.8230769230769
10	215804	920	1.6916666666667
10	221108	940	4.5762483130904
10	226411	960	2.4304993252362
10	231763	980	4.540243902439
10	237129	1000	4.05
10	242462	1020	3.7012195121951
10	247844	1040	4.05
10	253179	1060	4.3358974358974
10	258584	1080	4.1
10	263811	1100	3.3756097560976
10	269073	1120	4.8390243902439
10	274223	1140	3.025641025641
10	279583	1160	3.6410256410256
10	284872	1180	2.8455128205128
10	290229	1200	2.9333333333333
10	295489	1220	3.6794871794872
10	300844	1240	3.8743902439024
10	306161	1260	4.259756097561
10	311487	1280	2.6599190283401
10	316860	1300	1.2794871794872
10	322261	1320	1.5681511470985
10	327596	1340	3.374358974359
10	332856	1360	2.8916666666667
10	338193	1380	2.999358974359
10	343518	1400	3.0153846153846
10	348875	1420	4.1975609756098
10	354282	1440	2.8660256410256
10	359625	1460	3.5743902439024
10	364934	1480	4.0890243902439
10	370255	1500	2.5475609756098
10	375544	1520	1.9568151147099
10	380878	1540	2.8394062078273
10	386265	1560	3.2280701754386
10	391604	1580	4.1
10	396923	1600	2.8102564102564
10	402205	1620	4.7942307692308
10	407544	1640	3.7256097560976
10	412893	1660	2.1128205128205
10	418212	1680	3.7685897435897
10	423535	1700	2.6153846153846
10	428872	1720	4.4719512195122
10	434160	1740	2.7243902439024
10	439476	1760	3.199358974359
10	444814	1780	4.523616734143
10	450092	1800	4.2219512195122
10	454967	1820	1.6576576576577
10	459255	1840	2.7388591800357
10	463058	1860	2.2586206896552
10	466378	1880	2.6923076923077
10	469318	1900	3.0416666666667
10	471703	1920	3.347619047619
10	473699	1940	3.3897058823529
10	475200	1960	1.552380952381
10	476259	1980	1.4727272727273
10	476878	2000	2
11	34790	240	281.95137264961
11	40087	260	178.08766618941
11	45467	280	183.21287077041
11	50707	300	321.41560549177
11	55955	320	229.6698189459
11	61380	340	277.76168103135
11	66683	360	277.37008037318
11	72004	380	93.321700715856
11	77227	400	238.8868268837
11	82600	420	92.734292685198
11	87933	440	90.937719781584
11	93309	460	89.984667264888
11	98631	480	141.86267050658
11	103939	500	227.55901935239
11	109296	520	328.45248309522
11	114620	540	45.938289908101
11	119968	560	140.92415738463
11	125197	580	90.614696618064
11	130493	600	235.85206429877
11	135796	620	185.98315601316
11	141088	640	188.90309083558
11	146372	660	185.67787628632
11	151764	680	325.4662266028
11	156997	700	93.346618528804
11	162412	720	283.49489748181
11	167806	740	0
11	172991	760	275.46426486372
11	178414	780	154.46481936577
11	183668	800	222.35868303222
11	188962	820	283.29564775971
11	194273	840	138.76248826008
11	199629	860	52.696501258436
11	205073	880	136.10210366629
11	210400	900	279.76900981443
11	215804	920	280.53464750373
11	221108	940	137.1064597448
11	226411	960	138.36833504805
11	231763	980	273.80140491873
11	237129	1000	239.72594815602
11	242462	1020	185.20607690313
11	247844	1040	186.63812293432
11	253179	1060	231.53016643002
11	258584	1080	91.277092695702
11	263811	1100	137.68622309394
11	269073	1120	461.52869113101
11	274223	1140	184.07134601314
11	279583	1160	138.92713655164
11	284872	1180	189.86913220403
11	290229	1200	182.263331759
11	295489	1220	232.14342456985
11	300844	1240	138.73661539331
11	306161	1260	179.84109136212
11	311487	1280	91.581996851382
11	316860	1300	45.672536488205
11	322261	1320	45.3284132412
11	327596	1340	90.543338315779
11	332856	1360	181.00989413979
11	338193	1380	139.32960307905
11	343518	1400	187.96211834742
11	348875	1420	286.60025075954
11	354282	1440	280.04878371563
11	359625	1460	281.78714089467
11	364934	1480	90.602344124573
11	370255	1500	45.420793929163
11	375544	1520	179.95348013161
11	380878	1540	134.15298462623
11	386265	1560	181.53477776383
11	391604	1580	44.466002550045
11	396923	1600	230.06588195226
11	402205	1620	150.53094631107
11	407544	1640	139.88934543841
11	412893	1660	138.57825248359
11	418212	1680	90.758608492127
11	423535	1700	138.48889339788
11	428872	1720	233.35510093237
11	434160	1740	139.87472679357
11	439476	1760	277.59992045515
11	444814	1780	137.55980512545
11	450092	1800	230.50563874192
11	454967	1820	45.412977998404
11	459255	1840	140.97556588199
11	463058	1860	0
11	466378	1880	46.164403928542
11	469318	1900	139.08113801537
11	471703	1920	138.94759872158
11	473699	1940	93.266894454216
11	475200	1960	45.256490888786
11	476259	1980	0
11	476878	2000	0
12	34790	240	46.991895441601
12	40087	260	44.521916547352
12	45467	280	45.803217692603
12	50707	300	45.916515070253
12	55955	320	45.933963789181
12	61380	340	46.293613505225
12	66683	360	46.228346728864
12	72004	380	46.660850357928
12	77227	400	47.77736537674
12	82600	420	46.367146342599
12	87933	440	45.468859890792
12	93309	460	44.992333632444
12	98631	480	47.287556835525
12	103939	500	45.511803870477
12	109296	520	46.921783299318
12	114620	540	45.938289908101
12	119968	560	46.97471912821
12	125197	580	45.307348309032
12	130493	600	47.170412859755
12	135796	620	46.495789003289
12	141088	640	47.225772708894
12	146372	660	46.41946907158
12	151764	680	46.495175228972
12	156997	700	46.673309264402
12	162412	720	47.249149580301
12	167806	740	nan
12	172991	760	45.910710810619
12	178414	780	51.488273121923
12	183668	800	44.471736606444
12	188962	820	47.215941293285
12	194273	840	46.254162753361
12	199629	860	52.696501258436
12	205073	880	45.367367888765
12	210400	900	46.628168302406
12	215804	920	46.755774583956
12	221108	940	45.702153248266
12	226411	960	46.12277834935
12	231763	980	45.633567486455
12	237129	1000	47.945189631203
12	242462	1020	46.301519225782
12	247844	1040	46.659530733579
12	253179	1060	46.306033286003
12	258584	1080	45.638546347851
12	263811	1100	45.895407697981
12	269073	1120	46.152869113101
12	274223	1140	46.017836503286
12	279583	1160	46.309045517214
12	284872	1180	47.467283051007
12	290229	1200	45.565832939749
12	295489	1220	46.42868491397
12	300844	1240	46.245538464435
12	306161	1260	44.96027284053
12	311487	1280	45.790998425691
12	316860	1300	45.672536488205
12	322261	1320	45.3284132412
12	327596	1340	45.27166915789
12	332856	1360	45.252473534947
12	338193	1380	46.443201026351
12	343518	1400	46.990529586854
12	348875	1420	47.766708459923
12	354282	1440	46.674797285938
12	359625	1460	46.964523482446
12	364934	1480	45.301172062286
12	370255	1500	45.420793929163
12	375544	1520	44.988370032903
12	380878	1540	44.717661542078
12	386265	1560	45.383694440957
12	391604	1580	44.466002550045
12	396923	1600	46.013176390452
12	402205	1620	50.176982103689
12	407544	1640	46.629781812802
12	412893	1660	46.192750827864
12	418212	1680	45.379304246063
12	423535	1700	46.162964465959
12	428872	1720	46.671020186474
12	434160	1740	46.624908931191
12	439476	1760	46.266653409192
12	444814	1780	45.853268375151
12	450092	1800	46.101127748384
12	454967	1820	45.412977998404
12	459255	1840	46.991855293998
12	463058	1860	nan
12	466378	1880	46.164403928542
12	469318	1900	46.360379338458
12	471703	1920	46.315866240526
12	473699	1940	46.633447227108
12	475200	1960	45.256490888786
12	476259	1980	nan
12	476878	2000	nan
13	34790	240	4.6636325352268
13	40087	260	2.6686976776939
13	45467	280	1.0525062526675
13	50707	300	1.3589211269397
13	55955	320	2.0177837929419
13	61380	340	1.201900423609
13	66683	360	2.779775859638
13	72004	380	2.8827681433894
13	77227	400	3.0977820922424
13	82600	420	1.9214824977314
13	87933	440	1.1681661625323
13	93309	460	0.36878991509428
13	98631	480	1.9407174891891
13	103939	500	0.3722197512163
13	109296	520	1.9421650389289
13	114620	540	nan
13	119968	560	2.9729775214934
13	125197	580	0.35605769800593
13	130493	600	1.3334061636717
13	135796	620	2.0439300522055
13	141088	640	1.761453006229
13	146372	660	0.98394908938436
13	151764	680	3.1337144366086
13	156997	700	0.1629406207919
13	162412	720	2.6968687825943
13	167806	740	nan
13	172991	760	1.337678283318
13	178414	780	4.3401376610656
13	183668	800	2.2868223747685
13	188962	820	1.7510618013938
13	194273	840	1.6399142667271
13	199629	860	nan
13	205073	880	1.4194570001641
13	210400	900	1.3184702317318
13	215804	920	1.3088254437097
13	221108	940	1.3199942940198
13	226411	960	0.82245660694135
13	231763	980	1.3085266854153
13	237129	1000	3.623296432287
13	242462	1020	1.4201737563257
13	247844	1040	1.0555873334324
13	253179	1060	4.4549502568325
13	258584	1080	2.2618593880072
13	263811	1100	0.68302051495284
13	269073	1120	1.310846629465
13	274223	1140	0.81537725169606
13	279583	1160	1.4431327404458
13	284872	1180	2.2882553817003
13	290229	1200	1.5796179543257
13	295489	1220	0.96434128150312
13	300844	1240	1.3345248787969
13	306161	1260	1.2370675681382
13	311487	1280	1.246534332777
13	316860	1300	nan
13	322261	1320	nan
13	327596	1340	0.19153466813263
13	332856	1360	1.6220055943109
13	338193	1380	1.6897089484937