version 2
run statisticRVV-142-20150325-14:56:27-22812
attr c 16
attr configname statisticRVV
attr datetime 20150325-14:56:27
attr experiment statisticRVV
attr inifile omnetpp.ini
attr iterationvars "$sc=\"erlangen-medium.launchd.xml\", $p=1/15, $c=16"
attr iterationvars2 "$sc=\"erlangen-medium.launchd.xml\", $p=1/15, $c=16, $repetition=2"
attr measurement "$sc=\"erlangen-medium.launchd.xml\", $p=1/15, $c=16"
attr network RSUExampleScenario
attr p 1/15
attr processid 22812
attr repetition 2
attr replication #2
attr resultdir results
attr runnumber 142
attr sc "\"erlangen-medium.launchd.xml\""
attr seedset 142

vector 0  RSUExampleScenario.rsu[0].appl  Number_CH  ETV
vector 1  RSUExampleScenario.rsu[0].appl  Number_ON  ETV
vector 2  RSUExampleScenario.rsu[0].appl  Number_FN  ETV
vector 3  RSUExampleScenario.rsu[0].appl  Number_CH_Losts  ETV
vector 4  RSUExampleScenario.rsu[0].appl  Mean_Cluster_Size  ETV
vector 5  RSUExampleScenario.rsu[0].appl  StdDev_Cluster_Size  ETV
vector 6  RSUExampleScenario.rsu[0].appl  Variance_Cluster_Size  ETV
vector 7  RSUExampleScenario.rsu[0].appl  Mean_Neighbors  ETV
vector 8  RSUExampleScenario.rsu[0].appl  StdDev_Neighbors  ETV
vector 9  RSUExampleScenario.rsu[0].appl  Variance_Neighbors  ETV
vector 10  RSUExampleScenario.rsu[0].appl  Total_CH_Utility  ETV
vector 11  RSUExampleScenario.rsu[0].appl  Mean_CH_Utility  ETV
vector 12  RSUExampleScenario.rsu[0].appl  StdDev_CH_Utility  ETV
vector 13  RSUExampleScenario.rsu[0].appl  Variance_CH_Utility  ETV
vector 14  RSUExampleScenario.rsu[0].appl  Total_exp_CH_Utility  ETV
vector 15  RSUExampleScenario.rsu[0].appl  Mean_exp_CH_Utility  ETV
vector 16  RSUExampleScenario.rsu[0].appl  StdDev_exp_CH_Utility  ETV
vector 17  RSUExampleScenario.rsu[0].appl  Variance_exp_CH_Utility  ETV
vector 18  RSUExampleScenario.rsu[0].appl  Total_ON_Utility  ETV
vector 19  RSUExampleScenario.rsu[0].appl  Mean_ON_Utility  ETV
vector 20  RSUExampleScenario.rsu[0].appl  StdDev_ON_Utility  ETV
vector 21  RSUExampleScenario.rsu[0].appl  Variance_ON_Utility  ETV
vector 22  RSUExampleScenario.rsu[0].appl  Total_exp_ON_Utility  ETV
vector 23  RSUExampleScenario.rsu[0].appl  Mean_exp_ON_Utility  ETV
vector 24  RSUExampleScenario.rsu[0].appl  StdDev_exp_ON_Utility  ETV
vector 25  RSUExampleScenario.rsu[0].appl  Variance_exp_ON_Utility  ETV
0	145398	240	4
0	171174	260	3
0	198480	280	5
0	225747	300	5
0	253082	320	2
0	280603	340	4
0	307995	360	3
0	336056	380	4
0	364646	400	4
0	393513	420	2
0	422997	440	3
0	453089	460	5
0	484003	480	6
0	515282	500	4
0	547669	520	3
0	580779	540	7
0	614468	560	3
0	649355	580	3
0	684811	600	6
0	721729	620	6
0	759995	640	9
0	799162	660	7
0	839709	680	10
0	881312	700	7
0	923749	720	7
0	967508	740	8
0	1012523	760	7
0	1058390	780	7
0	1105492	800	9
0	1153358	820	7
0	1202754	840	6
0	1253241	860	4
0	1305017	880	10
0	1358012	900	6
0	1412499	920	4
0	1468057	940	9
0	1524829	960	3
0	1582563	980	8
0	1641696	1000	10
0	1703074	1020	10
0	1765352	1040	9
0	1828847	1060	10
0	1894318	1080	4
0	1961707	1100	5
0	2031021	1120	7
0	2102788	1140	5
0	2176392	1160	10
0	2251042	1180	9
0	2328199	1200	6
0	2407091	1220	6
0	2487921	1240	11
0	2570712	1260	8
0	2655572	1280	8
0	2742447	1300	12
0	2832235	1320	8
0	2923746	1340	7
0	3017192	1360	2
0	3112436	1380	10
0	3210187	1400	7
0	3309476	1420	6
0	3411041	1440	8
0	3516002	1460	10
0	3622993	1480	13
0	3731710	1500	13
0	3843676	1520	12
0	3957260	1540	9
0	4073333	1560	14
0	4191392	1580	8
0	4312182	1600	9
0	4434848	1620	5
0	4559516	1640	11
0	4687005	1660	11
0	4816217	1680	5
0	4947994	1700	5
0	5082329	1720	8
0	5218651	1740	7
0	5357487	1760	14
0	5498872	1780	8
0	5643184	1800	6
0	5789695	1820	9
0	5939416	1840	11
0	6091575	1860	6
0	6245544	1880	13
0	6402501	1900	12
0	6561257	1920	11
0	6723917	1940	14
0	6889209	1960	13
0	7056880	1980	12
0	7226459	2000	9
1	145398	240	5
1	171174	260	5
1	198480	280	6
1	225747	300	7
1	253082	320	2
1	280603	340	7
1	307995	360	4
1	336056	380	5
1	364646	400	6
1	393513	420	3
1	422997	440	5
1	453089	460	6
1	484003	480	7
1	515282	500	4
1	547669	520	5
1	580779	540	10
1	614468	560	3
1	649355	580	6
1	684811	600	7
1	721729	620	9
1	759995	640	12
1	799162	660	9
1	839709	680	12
1	881312	700	8
1	923749	720	8
1	967508	740	9
1	1012523	760	9
1	1058390	780	13
1	1105492	800	11
1	1153358	820	12
1	1202754	840	8
1	1253241	860	4
1	1305017	880	13
1	1358012	900	9
1	1412499	920	6
1	1468057	940	13
1	1524829	960	3
1	1582563	980	10
1	1641696	1000	14
1	1703074	1020	13
1	1765352	1040	11
1	1828847	1060	12
1	1894318	1080	4
1	1961707	1100	7
1	2031021	1120	9
1	2102788	1140	5
1	2176392	1160	14
1	2251042	1180	13
1	2328199	1200	8
1	2407091	1220	10
1	2487921	1240	14
1	2570712	1260	13
1	2655572	1280	10
1	2742447	1300	17
1	2832235	1320	13
1	2923746	1340	11
1	3017192	1360	2
1	3112436	1380	12
1	3210187	1400	10
1	3309476	1420	9
1	3411041	1440	11
1	3516002	1460	16
1	3622993	1480	19
1	3731710	1500	17
1	3843676	1520	16
1	3957260	1540	13
1	4073333	1560	17
1	4191392	1580	11
1	4312182	1600	13
1	4434848	1620	7
1	4559516	1640	17
1	4687005	1660	16
1	4816217	1680	9
1	4947994	1700	8
1	5082329	1720	12
1	5218651	1740	9
1	5357487	1760	16
1	5498872	1780	14
1	5643184	1800	8
1	5789695	1820	11
1	5939416	1840	17
1	6091575	1860	8
1	6245544	1880	18
1	6402501	1900	13
1	6561257	1920	14
1	6723917	1940	21
1	6889209	1960	18
1	7056880	1980	16
1	7226459	2000	12
2	145398	240	69
2	171174	260	77
2	198480	280	82
2	225747	300	81
2	253082	320	91
2	280603	340	84
2	307995	360	87
2	336056	380	88
2	364646	400	87
2	393513	420	95
2	422997	440	91
2	453089	460	90
2	484003	480	89
2	515282	500	95
2	547669	520	98
2	580779	540	90
2	614468	560	101
2	649355	580	99
2	684811	600	96
2	721729	620	96
2	759995	640	93
2	799162	660	99
2	839709	680	93
2	881312	700	101
2	923749	720	102
2	967508	740	102
2	1012523	760	104
2	1058390	780	102
2	1105492	800	101
2	1153358	820	105
2	1202754	840	112
2	1253241	860	117
2	1305017	880	104
2	1358012	900	112
2	1412499	920	121
2	1468057	940	109
2	1524829	960	127
2	1582563	980	116
2	1641696	1000	111
2	1703074	1020	112
2	1765352	1040	117
2	1828847	1060	116
2	1894318	1080	132
2	1961707	1100	129
2	2031021	1120	126
2	2102788	1140	131
2	2176392	1160	119
2	2251042	1180	125
2	2328199	1200	134
2	2407091	1220	132
2	2487921	1240	122
2	2570712	1260	130
2	2655572	1280	134
2	2742447	1300	124
2	2832235	1320	133
2	2923746	1340	137
2	3017192	1360	152
2	3112436	1380	136
2	3210187	1400	142
2	3309476	1420	146
2	3411041	1440	143
2	3516002	1460	139
2	3622993	1480	133
2	3731710	1500	138
2	3843676	1520	139
2	3957260	1540	146
2	4073333	1560	138
2	4191392	1580	152
2	4312182	1600	149
2	4434848	1620	162
2	4559516	1640	146
2	4687005	1660	148
2	4816217	1680	163
2	4947994	1700	163
2	5082329	1720	159
2	5218651	1740	165
2	5357487	1760	151
2	5498872	1780	159
2	5643184	1800	170
2	5789695	1820	165
2	5939416	1840	159
2	6091575	1860	174
2	6245544	1880	158
2	6402501	1900	165
2	6561257	1920	167
2	6723917	1940	158
2	6889209	1960	163
2	7056880	1980	169
2	7226459	2000	176
3	145398	240	1
3	171174	260	0
3	198480	280	2
3	225747	300	1
3	253082	320	1
3	280603	340	1
3	307995	360	2
3	336056	380	2
3	364646	400	2
3	393513	420	0
3	422997	440	3
3	453089	460	2
3	484003	480	1
3	515282	500	1
3	547669	520	1
3	580779	540	1
3	614468	560	2
3	649355	580	1
3	684811	600	2
3	721729	620	1
3	759995	640	2
3	799162	660	0
3	839709	680	2
3	881312	700	0
3	923749	720	2
3	967508	740	1
3	1012523	760	3
3	1058390	780	1
3	1105492	800	0
3	1153358	820	3
3	1202754	840	2
3	1253241	860	2
3	1305017	880	4
3	1358012	900	1
3	1412499	920	3
3	1468057	940	1
3	1524829	960	1
3	1582563	980	1
3	1641696	1000	1
3	1703074	1020	1
3	1765352	1040	2
3	1828847	1060	1
3	1894318	1080	2
3	1961707	1100	2
3	2031021	1120	2
3	2102788	1140	2
3	2176392	1160	4
3	2251042	1180	2
3	2328199	1200	2
3	2407091	1220	4
3	2487921	1240	3
3	2570712	1260	0
3	2655572	1280	3
3	2742447	1300	1
3	2832235	1320	1
3	2923746	1340	5
3	3017192	1360	0
3	3112436	1380	2
3	3210187	1400	5
3	3309476	1420	0
3	3411041	1440	2
3	3516002	1460	2
3	3622993	1480	2
3	3731710	1500	4
3	3843676	1520	2
3	3957260	1540	4
3	4073333	1560	4
3	4191392	1580	1
3	4312182	1600	1
3	4434848	1620	0
3	4559516	1640	1
3	4687005	1660	4
3	4816217	1680	2
3	4947994	1700	0
3	5082329	1720	2
3	5218651	1740	2
3	5357487	1760	3
3	5498872	1780	0
3	5643184	1800	4
3	5789695	1820	1
3	5939416	1840	2
3	6091575	1860	1
3	6245544	1880	4
3	6402501	1900	2
3	6561257	1920	3
3	6723917	1940	5
3	6889209	1960	2
3	7056880	1980	3
3	7226459	2000	2
4	145398	240	1.25
4	171174	260	1.6666666666667
4	198480	280	1.2
4	225747	300	1.4
4	253082	320	1
4	280603	340	1.75
4	307995	360	1.3333333333333
4	336056	380	1.25
4	364646	400	1.5
4	393513	420	1.5
4	422997	440	1.6666666666667
4	453089	460	1.2
4	484003	480	1.1666666666667
4	515282	500	1
4	547669	520	1.6666666666667
4	580779	540	1.4285714285714
4	614468	560	1
4	649355	580	2
4	684811	600	1.1666666666667
4	721729	620	1.5
4	759995	640	1.3333333333333
4	799162	660	1.2857142857143
4	839709	680	1.2
4	881312	700	1.1428571428571
4	923749	720	1.1428571428571
4	967508	740	1.125
4	1012523	760	1.2857142857143
4	1058390	780	1.8571428571429
4	1105492	800	1.2222222222222
4	1153358	820	1.7142857142857
4	1202754	840	1.3333333333333
4	1253241	860	1
4	1305017	880	1.3
4	1358012	900	1.5
4	1412499	920	1.5
4	1468057	940	1.4444444444444
4	1524829	960	1
4	1582563	980	1.25
4	1641696	1000	1.4
4	1703074	1020	1.3
4	1765352	1040	1.2222222222222
4	1828847	1060	1.2
4	1894318	1080	1
4	1961707	1100	1.4
4	2031021	1120	1.2857142857143
4	2102788	1140	1
4	2176392	1160	1.4
4	2251042	1180	1.4444444444444
4	2328199	1200	1.3333333333333
4	2407091	1220	1.6666666666667
4	2487921	1240	1.2727272727273
4	2570712	1260	1.625
4	2655572	1280	1.25
4	2742447	1300	1.4166666666667
4	2832235	1320	1.625
4	2923746	1340	1.5714285714286
4	3017192	1360	1
4	3112436	1380	1.2
4	3210187	1400	1.4285714285714
4	3309476	1420	1.5
4	3411041	1440	1.375
4	3516002	1460	1.6
4	3622993	1480	1.4615384615385
4	3731710	1500	1.3076923076923
4	3843676	1520	1.3333333333333
4	3957260	1540	1.4444444444444
4	4073333	1560	1.2142857142857
4	4191392	1580	1.375
4	4312182	1600	1.4444444444444
4	4434848	1620	1.4
4	4559516	1640	1.5454545454545
4	4687005	1660	1.4545454545455
4	4816217	1680	1.8
4	4947994	1700	1.6
4	5082329	1720	1.5
4	5218651	1740	1.2857142857143
4	5357487	1760	1.1428571428571
4	5498872	1780	1.75
4	5643184	1800	1.3333333333333
4	5789695	1820	1.2222222222222
4	5939416	1840	1.5454545454545
4	6091575	1860	1.3333333333333
4	6245544	1880	1.3846153846154
4	6402501	1900	1.0833333333333
4	6561257	1920	1.2727272727273
4	6723917	1940	1.5
4	6889209	1960	1.3846153846154
4	7056880	1980	1.3333333333333
4	7226459	2000	1.3333333333333
5	145398	240	0.5
5	171174	260	0.57735026918963
5	198480	280	0.44721359549996
5	225747	300	0.54772255750517
5	253082	320	0
5	280603	340	0.95742710775634
5	307995	360	0.57735026918963
5	336056	380	0.5
5	364646	400	0.57735026918963
5	393513	420	0.70710678118655
5	422997	440	0.57735026918963
5	453089	460	0.44721359549996
5	484003	480	0.40824829046386
5	515282	500	0
5	547669	520	0.57735026918963
5	580779	540	0.53452248382485
5	614468	560	0
5	649355	580	0
5	684811	600	0.40824829046386
5	721729	620	0.54772255750517
5	759995	640	0.5
5	799162	660	0.48795003647427
5	839709	680	0.42163702135578
5	881312	700	0.37796447300923
5	923749	720	0.37796447300923
5	967508	740	0.35355339059327
5	1012523	760	0.48795003647427
5	1058390	780	0.37796447300923
5	1105492	800	0.4409585518441
5	1153358	820	0.75592894601845
5	1202754	840	0.51639777949432
5	1253241	860	0
5	1305017	880	0.48304589153965
5	1358012	900	0.54772255750517
5	1412499	920	0.57735026918963
5	1468057	940	0.52704627669473
5	1524829	960	0
5	1582563	980	0.46291004988628
5	1641696	1000	0.51639777949432
5	1703074	1020	0.48304589153965
5	1765352	1040	0.4409585518441
5	1828847	1060	0.42163702135578
5	1894318	1080	0
5	1961707	1100	0.54772255750517
5	2031021	1120	0.48795003647427
5	2102788	1140	0
5	2176392	1160	0.51639777949432
5	2251042	1180	0.72648315725678
5	2328199	1200	0.51639777949432
5	2407091	1220	0.51639777949432
5	2487921	1240	0.46709936649691
5	2570712	1260	0.51754916950677
5	2655572	1280	0.46291004988628
5	2742447	1300	0.51492865054444
5	2832235	1320	0.51754916950677
5	2923746	1340	0.53452248382485
5	3017192	1360	0
5	3112436	1380	0.42163702135578
5	3210187	1400	0.53452248382485
5	3309476	1420	0.54772255750517
5	3411041	1440	0.51754916950677
5	3516002	1460	0.51639777949432
5	3622993	1480	0.51887452166277
5	3731710	1500	0.48038446141526
5	3843676	1520	0.49236596391733
5	3957260	1540	0.52704627669473
5	4073333	1560	0.42581531362632
5	4191392	1580	0.51754916950677
5	4312182	1600	0.52704627669473
5	4434848	1620	0.54772255750517
5	4559516	1640	0.52223296786709
5	4687005	1660	0.52223296786709
5	4816217	1680	0.44721359549996
5	4947994	1700	0.54772255750517
5	5082329	1720	0.53452248382485
5	5218651	1740	0.48795003647427
5	5357487	1760	0.36313651960128
5	5498872	1780	0.46291004988628
5	5643184	1800	0.51639777949432
5	5789695	1820	0.4409585518441
5	5939416	1840	0.52223296786709
5	6091575	1860	0.51639777949432
5	6245544	1880	0.50636968354183
5	6402501	1900	0.28867513459481
5	6561257	1920	0.46709936649691
5	6723917	1940	0.51887452166277
5	6889209	1960	0.50636968354183
5	7056880	1980	0.49236596391733
5	7226459	2000	0.5
6	145398	240	0.25
6	171174	260	0.33333333333333
6	198480	280	0.2
6	225747	300	0.3
6	253082	320	0
6	280603	340	0.91666666666667
6	307995	360	0.33333333333333
6	336056	380	0.25
6	364646	400	0.33333333333333
6	393513	420	0.5
6	422997	440	0.33333333333333
6	453089	460	0.2
6	484003	480	0.16666666666667
6	515282	500	0
6	547669	520	0.33333333333333
6	580779	540	0.28571428571429
6	614468	560	0
6	649355	580	0
6	684811	600	0.16666666666667
6	721729	620	0.3
6	759995	640	0.25
6	799162	660	0.23809523809524
6	839709	680	0.17777777777778
6	881312	700	0.14285714285714
6	923749	720	0.14285714285714
6	967508	740	0.125
6	1012523	760	0.23809523809524
6	1058390	780	0.14285714285714
6	1105492	800	0.19444444444444
6	1153358	820	0.57142857142857
6	1202754	840	0.26666666666667
6	1253241	860	0
6	1305017	880	0.23333333333333
6	1358012	900	0.3
6	1412499	920	0.33333333333333
6	1468057	940	0.27777777777778
6	1524829	960	0
6	1582563	980	0.21428571428571
6	1641696	1000	0.26666666666667
6	1703074	1020	0.23333333333333
6	1765352	1040	0.19444444444444
6	1828847	1060	0.17777777777778
6	1894318	1080	0
6	1961707	1100	0.3
6	2031021	1120	0.23809523809524
6	2102788	1140	0
6	2176392	1160	0.26666666666667
6	2251042	1180	0.52777777777778
6	2328199	1200	0.26666666666667
6	2407091	1220	0.26666666666667
6	2487921	1240	0.21818181818182
6	2570712	1260	0.26785714285714
6	2655572	1280	0.21428571428571
6	2742447	1300	0.26515151515152
6	2832235	1320	0.26785714285714
6	2923746	1340	0.28571428571429
6	3017192	1360	0
6	3112436	1380	0.17777777777778
6	3210187	1400	0.28571428571429
6	3309476	1420	0.3
6	3411041	1440	0.26785714285714
6	3516002	1460	0.26666666666667
6	3622993	1480	0.26923076923077
6	3731710	1500	0.23076923076923
6	3843676	1520	0.24242424242424
6	3957260	1540	0.27777777777778
6	4073333	1560	0.18131868131868
6	4191392	1580	0.26785714285714
6	4312182	1600	0.27777777777778
6	4434848	1620	0.3
6	4559516	1640	0.27272727272727
6	4687005	1660	0.27272727272727
6	4816217	1680	0.2
6	4947994	1700	0.3
6	5082329	1720	0.28571428571429
6	5218651	1740	0.23809523809524
6	5357487	1760	0.13186813186813
6	5498872	1780	0.21428571428571
6	5643184	1800	0.26666666666667
6	5789695	1820	0.19444444444444
6	5939416	1840	0.27272727272727
6	6091575	1860	0.26666666666667
6	6245544	1880	0.25641025641026
6	6402501	1900	0.083333333333333
6	6561257	1920	0.21818181818182
6	6723917	1940	0.26923076923077
6	6889209	1960	0.25641025641026
6	7056880	1980	0.24242424242424
6	7226459	2000	0.25
7	145398	240	22.692307692308
7	171174	260	22.658823529412
7	198480	280	22.10752688172
7	225747	300	22.576086956522
7	253082	320	22.357894736842
7	280603	340	22.276595744681
7	307995	360	22.276595744681
7	336056	380	22.144329896907
7	364646	400	22.113402061856
7	393513	420	22.08
7	422997	440	22.191919191919
7	453089	460	22.19801980198
7	484003	480	22.519607843137
7	515282	500	22.427184466019
7	547669	520	22.933962264151
7	580779	540	23.396226415094
7	614468	560	23.485981308411
7	649355	580	23.990740740741
7	684811	600	24
7	721729	620	24.54954954955
7	759995	640	25.681415929204
7	799162	660	25.860869565217
7	839709	680	26.208695652174
7	881312	700	27.286956521739
7	923749	720	27.803418803419
7	967508	740	27.857142857143
7	1012523	760	28.033333333333
7	1058390	780	28.818181818182
7	1105492	800	28.611570247934
7	1153358	820	29.306451612903
7	1202754	840	29.261904761905
7	1253241	860	29.872
7	1305017	880	30.409448818898
7	1358012	900	30.685039370079
7	1412499	920	30.824427480916
7	1468057	940	31.534351145038
7	1524829	960	31.894736842105
7	1582563	980	31.783582089552
7	1641696	1000	32.17037037037
7	1703074	1020	32.792592592593
7	1765352	1040	33.226277372263
7	1828847	1060	34.326086956522
7	1894318	1080	34.278571428571
7	1961707	1100	35.326241134752
7	2031021	1120	35.739436619718
7	2102788	1140	36.723404255319
7	2176392	1160	37.741258741259
7	2251042	1180	37.891156462585
7	2328199	1200	38.614864864865
7	2407091	1220	39.277027027027
7	2487921	1240	40.136054421769
7	2570712	1260	40.801324503311
7	2655572	1280	41.506578947368
7	2742447	1300	42.196078431373
7	2832235	1320	42.564935064935
7	2923746	1340	43.948051948052
7	3017192	1360	44.173076923077
7	3112436	1380	44.550632911392
7	3210187	1400	45.578616352201
7	3309476	1420	45.894409937888
7	3411041	1440	46.518518518519
7	3516002	1460	47.94512195122
7	3622993	1480	48.521212121212
7	3731710	1500	48.488095238095
7	3843676	1520	49.62874251497
7	3957260	1540	50.497005988024
7	4073333	1560	50.502958579882
7	4191392	1580	51.181286549708
7	4312182	1600	51.836257309942
7	4434848	1620	52.109195402299
7	4559516	1640	52.563218390805
7	4687005	1660	53.222857142857
7	4816217	1680	53.534090909091
7	4947994	1700	54.369318181818
7	5082329	1720	54.955056179775
7	5218651	1740	55.292817679558
7	5357487	1760	55.640883977901
7	5498872	1780	56.39226519337
7	5643184	1800	56.532608695652
7	5789695	1820	57.345945945946
7	5939416	1840	58.155913978495
7	6091575	1860	58.393617021277
7	6245544	1880	59.047619047619
7	6402501	1900	59.342105263158
7	6561257	1920	60.03125
7	6723917	1940	60.523316062176
7	6889209	1960	62.336787564767
7	7056880	1980	61.664974619289
7	7226459	2000	62.502538071066
8	145398	240	4.2466417360034
8	171174	260	4.7120740079696
8	198480	280	4.9132968777094
8	225747	300	4.0006419695068
8	253082	320	4.3854590227097
8	280603	340	4.8090511780049
8	307995	360	4.6267205583591
8	336056	380	4.9665331862411
8	364646	400	4.5411917687334
8	393513	420	5.0486121705361
8	422997	440	4.28256257368
8	453089	460	3.972454661743
8	484003	480	3.7751936338952
8	515282	500	4.1078641503102
8	547669	520	3.8477423632307
8	580779	540	3.0352821953471
8	614468	560	3.0695229977326
8	649355	580	3.7378972807836
8	684811	600	3.2716515254079
8	721729	620	4.5482039187089
8	759995	640	4.1581793035055
8	799162	660	4.6733416357293
8	839709	680	5.3303099744859
8	881312	700	5.7074362348857
8	923749	720	6.5564384205716
8	967508	740	7.3303244249033
8	1012523	760	7.0304659148873
8	1058390	780	7.6168672475413
8	1105492	800	7.9008141994211
8	1153358	820	8.4825765177659
8	1202754	840	8.7179617539226
8	1253241	860	8.7868817177984
8	1305017	880	9.841888393703
8	1358012	900	9.8163297600863
8	1412499	920	10.420011011385
8	1468057	940	11.072000521012
8	1524829	960	11.258843768274
8	1582563	980	10.893442837166
8	1641696	1000	11.681431074631
8	1703074	1020	12.263948072818
8	1765352	1040	12.721561537481
8	1828847	1060	13.323138888107
8	1894318	1080	13.611816627524
8	1961707	1100	14.408577035869
8	2031021	1120	14.773312903626
8	2102788	1140	15.180394490911
8	2176392	1160	15.837961744089
8	2251042	1180	16.524423290747
8	2328199	1200	16.726500887944
8	2407091	1220	17.458530435832
8	2487921	1240	18.141996784794
8	2570712	1260	19.021047944334
8	2655572	1280	19.138047368869
8	2742447	1300	19.950946034663
8	2832235	1320	20.234224977826
8	2923746	1340	20.766297547405
8	3017192	1360	20.996516903629
8	3112436	1380	21.639062187066
8	3210187	1400	22.25581524001
8	3309476	1420	22.678073795098
8	3411041	1440	23.480723486114
8	3516002	1460	23.627283036059
8	3622993	1480	24.576309204833
8	3731710	1500	25.115300128443
8	3843676	1520	25.376796872213
8	3957260	1540	25.488923711011
8	4073333	1560	25.938600638806
8	4191392	1580	26.156247720299
8	4312182	1600	26.708383262528
8	4434848	1620	26.823219740888
8	4559516	1640	26.538531764112
8	4687005	1660	26.882065611852
8	4816217	1680	27.083552779664
8	4947994	1700	27.660492126412
8	5082329	1720	27.658494516574
8	5218651	1740	27.881244259556
8	5357487	1760	28.443087176028
8	5498872	1780	28.570103757762
8	5643184	1800	28.966704491775
8	5789695	1820	29.20726713652
8	5939416	1840	29.434533725653
8	6091575	1860	29.978323036618
8	6245544	1880	30.085390126906
8	6402501	1900	30.555419609328
8	6561257	1920	30.829527263792
8	6723917	1940	31.203143628163
8	6889209	1960	30.869779316399
8	7056880	1980	31.588867866482
8	7226459	2000	31.478308755344
9	145398	240	18.033966033966
9	171174	260	22.203641456583
9	198480	280	24.140486208509
9	225747	300	16.00513616818
9	253082	320	19.232250839866
9	280603	340	23.12697323267
9	307995	360	21.406543125143
9	336056	380	24.666451890034
9	364646	400	20.622422680412
9	393513	420	25.488484848485
9	422997	440	18.340342197485
9	453089	460	15.780396039604
9	484003	480	14.252086973403
9	515282	500	16.874547877403
9	547669	520	14.805121293801
9	580779	540	9.2129380053908
9	614468	560	9.4219714336096
9	649355	580	13.971876081689
9	684811	600	10.703703703704
9	721729	620	20.686158886159
9	759995	640	17.290455120101
9	799162	660	21.840122044241
9	839709	680	28.412204424104
9	881312	700	32.574828375286
9	923749	720	42.986884762747
9	967508	740	53.733656174334
9	1012523	760	49.427450980392
9	1058390	780	58.016666666667
9	1105492	800	62.422865013774
9	1153358	820	71.954104379753
9	1202754	840	76.002857142857
9	1253241	860	77.209290322581
9	1305017	880	96.862767154106
9	1358012	900	96.360329958755
9	1412499	920	108.57662947739
9	1468057	940	122.58919553729
9	1524829	960	126.76156299841
9	1582563	980	118.66709684659
9	1641696	1000	136.45583195135
9	1703074	1020	150.40442233278
9	1765352	1040	161.83812795191
9	1828847	1060	177.5060298318
9	1894318	1080	185.28155190134
9	1961707	1100	207.60709219858
9	2031021	1120	218.25077414844
9	2102788	1140	230.4443768997
9	2176392	1160	250.84103220723
9	2251042	1180	273.05656509179
9	2328199	1200	279.7758319544
9	2407091	1220	304.80028497886
9	2487921	1240	329.13204733948
9	2570712	1260	361.80026490066
9	2655572	1280	366.26485709306
9	2742447	1300	398.04024767802
9	2832235	1320	409.42386045327
9	2923746	1340	431.23911382735
9	3017192	1360	440.85372208437
9	3112436	1380	468.24901233573
9	3210187	1400	495.32131199745
9	3309476	1420	514.2950310559
9	3411041	1440	551.34437543133
9	3516002	1460	558.24850366602
9	3622993	1480	603.99497413156
9	3731710	1500	630.77830054177
9	3843676	1520	643.98181949354
9	3957260	1540	649.68523194575
9	4073333	1560	672.81100309946
9	4191392	1580	684.14929480564
9	4312182	1600	713.33773649811
9	4434848	1620	719.48511726796
9	4559516	1640	704.2936681948
9	4687005	1660	722.64545155993
9	4816217	1680	733.51883116883
9	4947994	1700	765.10282467532
9	5082329	1720	764.99231892338
9	5218651	1740	777.36378146102
9	5357487	1760	809.00920810313
9	5498872	1780	816.25082872928
9	5643184	1800	839.0699691138
9	5789695	1820	853.06445358402
9	5939416	1840	866.39177564661
9	6091575	1860	898.69985208784
9	6245544	1880	905.13069908815
9	6402501	1900	933.63366750209
9	6561257	1920	950.4597513089
9	6723917	1940	973.63617227979
9	6889209	1960	952.94327504318
9	7056880	1980	997.85657308609
9	7226459	2000	990.88392209676
10	145398	240	187.91525633977
10	171174	260	144.12303181829
10	198480	280	235.74704870206
10	225747	300	236.57657355717
10	253082	320	94.924907171359
10	280603	340	196.52278033698
10	307995	360	143.23140021192
10	336056	380	189.5509930311
10	364646	400	194.04022970648
10	393513	420	97.013433466844
10	422997	440	144.59181967411
10	453089	460	244.85731589204
10	484003	480	285.81450226124
10	515282	500	200.31264957093
10	547669	520	142.45579040188
10	580779	540	347.19226928903
10	614468	560	146.01776164932
10	649355	580	145.29862586482
10	684811	600	293.60446889643
10	721729	620	295.46455479795
10	759995	640	449.7612436082
10	799162	660	341.69266619772
10	839709	680	502.06640248983
10	881312	700	345.67977126645
10	923749	720	350.90319789173
10	967508	740	388.10334134345
10	1012523	760	343.75369031973
10	1058390	780	351.14708800098
10	1105492	800	445.9304030469
10	1153358	820	343.58920460662
10	1202754	840	296.63983079957
10	1253241	860	190.73631601584
10	1305017	880	505.07542554469
10	1358012	900	301.99411306283
10	1412499	920	190.20977156366
10	1468057	940	457.5329814281
10	1524829	960	154.90192044137
10	1582563	980	377.40606479636
10	1641696	1000	506.77132194303
10	1703074	1020	479.31843330114
10	1765352	1040	443.30325060091
10	1828847	1060	492.50715410305
10	1894318	1080	194.46318772436
10	1961707	1100	255.10052369985
10	2031021	1120	357.44223717476
10	2102788	1140	236.14626855896
10	2176392	1160	497.53424451517
10	2251042	1180	462.51978013663
10	2328199	1200	304.00771997189
10	2407091	1220	298.53530179949
10	2487921	1240	553.11342919826
10	2570712	1260	399.73630819728
10	2655572	1280	391.0054106294
10	2742447	1300	596.74900422392
10	2832235	1320	389.04631480821
10	2923746	1340	342.87101445732
10	3017192	1360	103.44802001437
10	3112436	1380	498.84312994152
10	3210187	1400	356.48923650224
10	3309476	1420	300.70689906094
10	3411041	1440	399.76984213586
10	3516002	1460	498.29197533746
10	3622993	1480	651.2954500814
10	3731710	1500	654.69948567801
10	3843676	1520	603.45414896503
10	3957260	1540	451.2336800713
10	4073333	1560	686.97138420396
10	4191392	1580	404.70174889862
10	4312182	1600	458.95135392147
10	4434848	1620	250.02739842373
10	4559516	1640	558.72710699778
10	4687005	1660	551.78801539719
10	4816217	1680	244.59261077538
10	4947994	1700	255.90818251491
10	5082329	1720	403.90172223167
10	5218651	1740	340.48326904675
10	5357487	1760	711.45753137979
10	5498872	1780	407.13141035436
10	5643184	1800	301.39639819504
10	5789695	1820	449.87629238449
10	5939416	1840	556.45008646577
10	6091575	1860	306.40283258542
10	6245544	1880	652.62989351157
10	6402501	1900	587.9521594334
10	6561257	1920	554.09820164825
10	6723917	1940	716.84691115583
10	6889209	1960	653.17582067255
10	7056880	1980	609.53854078834
10	7226459	2000	466.75255281031
11	145398	240	46.978814084941
11	171174	260	48.041010606097
11	198480	280	47.149409740411
11	225747	300	47.315314711434
11	253082	320	47.46245358568
11	280603	340	49.130695084246
11	307995	360	47.74380007064
11	336056	380	47.387748257776
11	364646	400	48.510057426621
11	393513	420	48.506716733422
11	422997	440	48.197273224704
11	453089	460	48.971463178408
11	484003	480	47.635750376873
11	515282	500	50.078162392733
11	547669	520	47.485263467293
11	580779	540	49.598895612719
11	614468	560	48.672587216441
11	649355	580	48.432875288272
11	684811	600	48.934078149404
11	721729	620	49.244092466324
11	759995	640	49.973471512022
11	799162	660	48.813238028246
11	839709	680	50.206640248983
11	881312	700	49.382824466635
11	923749	720	50.129028270246
11	967508	740	48.512917667931
11	1012523	760	49.107670045676
11	1058390	780	50.163869714426
11	1105492	800	49.547822560766
11	1153358	820	49.08417208666
11	1202754	840	49.439971799928
11	1253241	860	47.68407900396
11	1305017	880	50.507542554469
11	1358012	900	50.332352177139
11	1412499	920	47.552442890915
11	1468057	940	50.836997936455
11	1524829	960	51.633973480456
11	1582563	980	47.175758099545
11	1641696	1000	50.677132194303
11	1703074	1020	47.931843330114
11	1765352	1040	49.255916733434
11	1828847	1060	49.250715410305
11	1894318	1080	48.615796931089
11	1961707	1100	51.020104739971
11	2031021	1120	51.063176739251
11	2102788	1140	47.229253711793
11	2176392	1160	49.753424451517
11	2251042	1180	51.391086681848
11	2328199	1200	50.667953328649
11	2407091	1220	49.755883633249
11	2487921	1240	50.283039018024
11	2570712	1260	49.96703852466
11	2655572	1280	48.875676328675
11	2742447	1300	49.729083685326
11	2832235	1320	48.630789351027
11	2923746	1340	48.981573493903
11	3017192	1360	51.724010007183
11	3112436	1380	49.884312994152
11	3210187	1400	50.927033786035
11	3309476	1420	50.117816510157
11	3411041	1440	49.971230266982
11	3516002	1460	49.829197533746
11	3622993	1480	50.099650006262
11	3731710	1500	50.361498898309
11	3843676	1520	50.287845747086
11	3957260	1540	50.137075563478
11	4073333	1560	49.069384585997
11	4191392	1580	50.587718612327
11	4312182	1600	50.994594880163
11	4434848	1620	50.005479684747
11	4559516	1640	50.793373363434
11	4687005	1660	50.16254685429
11	4816217	1680	48.918522155076
11	4947994	1700	51.181636502981
11	5082329	1720	50.487715278959
11	5218651	1740	48.640467006678
11	5357487	1760	50.818395098557
11	5498872	1780	50.891426294295
11	5643184	1800	50.232733032506
11	5789695	1820	49.986254709388
11	5939416	1840	50.586371496888
11	6091575	1860	51.067138764237
11	6245544	1880	50.20229950089
11	6402501	1900	48.996013286117
11	6561257	1920	50.372563786204
11	6723917	1940	51.203350796845
11	6889209	1960	50.244293897889
11	7056880	1980	50.794878399028
11	7226459	2000	51.861394756701
12	145398	240	1.1571016484954
12	171174	260	0.7443966140072
12	198480	280	0.32492712295538
12	225747	300	1.5636330452302
12	253082	320	0.28707740925396
12	280603	340	2.3827521118854
12	307995	360	0.80656240587393
12	336056	380	0.72050783407687
12	364646	400	2.9273022056262
12	393513	420	4.1882539869127
12	422997	440	2.8414064476999
12	453089	460	1.9755379538131
12	484003	480	1.7348373656374
12	515282	500	4.7998906159517
12	547669	520	0.85928548391092
12	580779	540	1.6396397653202
12	614468	560	3.4800203733622
12	649355	580	1.8747501985715
12	684811	600	3.2511793342557
12	721729	620	3.261776161959
12	759995	640	2.6588487064781
12	799162	660	2.3865188286147
12	839709	680	5.0020483393651
12	881312	700	2.0245837874598
12	923749	720	2.4795729478375
12	967508	740	3.1288206071012
12	1012523	760	1.7527154879843
12	1058390	780	2.4880460264297