version 2
run statisticRVV-131-20150327-06:09:12-12316
attr c 15
attr configname statisticRVV
attr datetime 20150327-06:09:12
attr experiment statisticRVV
attr inifile omnetpp.ini
attr iterationvars "$sc=\"erlangen-medium.launchd.xml\", $p=1/15, $c=15"
attr iterationvars2 "$sc=\"erlangen-medium.launchd.xml\", $p=1/15, $c=15, $repetition=1"
attr measurement "$sc=\"erlangen-medium.launchd.xml\", $p=1/15, $c=15"
attr network RSUExampleScenario
attr p 1/15
attr processid 12316
attr repetition 1
attr replication #1
attr resultdir results
attr runnumber 131
attr sc "\"erlangen-medium.launchd.xml\""
attr seedset 131

vector 0  RSUExampleScenario.rsu[0].appl  Number_CH  ETV
vector 1  RSUExampleScenario.rsu[0].appl  Number_ON  ETV
vector 2  RSUExampleScenario.rsu[0].appl  Number_FN  ETV
vector 3  RSUExampleScenario.rsu[0].appl  Number_CH_Losts  ETV
vector 4  RSUExampleScenario.rsu[0].appl  Number_CH_Losts  ETV
vector 5  RSUExampleScenario.rsu[0].appl  Mean_Cluster_Size  ETV
vector 6  RSUExampleScenario.rsu[0].appl  StdDev_Cluster_Size  ETV
vector 7  RSUExampleScenario.rsu[0].appl  Variance_Cluster_Size  ETV
vector 8  RSUExampleScenario.rsu[0].appl  Mean_Neighbors  ETV
vector 9  RSUExampleScenario.rsu[0].appl  StdDev_Neighbors  ETV
vector 10  RSUExampleScenario.rsu[0].appl  Variance_Neighbors  ETV
vector 11  RSUExampleScenario.rsu[0].appl  Total_CH_Utility  ETV
vector 12  RSUExampleScenario.rsu[0].appl  Mean_CH_Utility  ETV
vector 13  RSUExampleScenario.rsu[0].appl  StdDev_CH_Utility  ETV
vector 14  RSUExampleScenario.rsu[0].appl  Variance_CH_Utility  ETV
vector 15  RSUExampleScenario.rsu[0].appl  Total_exp_CH_Utility  ETV
vector 16  RSUExampleScenario.rsu[0].appl  Mean_exp_CH_Utility  ETV
vector 17  RSUExampleScenario.rsu[0].appl  StdDev_exp_CH_Utility  ETV
vector 18  RSUExampleScenario.rsu[0].appl  Variance_exp_CH_Utility  ETV
vector 19  RSUExampleScenario.rsu[0].appl  Total_ON_Utility  ETV
vector 20  RSUExampleScenario.rsu[0].appl  Mean_ON_Utility  ETV
vector 21  RSUExampleScenario.rsu[0].appl  StdDev_ON_Utility  ETV
vector 22  RSUExampleScenario.rsu[0].appl  Variance_ON_Utility  ETV
vector 23  RSUExampleScenario.rsu[0].appl  Total_exp_ON_Utility  ETV
vector 24  RSUExampleScenario.rsu[0].appl  Mean_exp_ON_Utility  ETV
vector 25  RSUExampleScenario.rsu[0].appl  StdDev_exp_ON_Utility  ETV
vector 26  RSUExampleScenario.rsu[0].appl  Variance_exp_ON_Utility  ETV
0	145111	240	10
0	170942	260	4
0	198240	280	6
0	225694	300	5
0	252793	320	8
0	280367	340	6
0	307995	360	4
0	336082	380	9
0	364595	400	8
0	393779	420	8
0	423069	440	8
0	452973	460	7
0	483645	480	9
0	515286	500	7
0	547629	520	7
0	580529	540	4
0	614398	560	11
0	649152	580	5
0	684973	600	6
0	721076	620	5
0	759041	640	8
0	797829	660	7
0	837697	680	8
0	878693	700	9
0	921220	720	5
0	965175	740	8
0	1009963	760	4
0	1056472	780	11
0	1103745	800	9
0	1151516	820	8
0	1200901	840	9
0	1252113	860	4
0	1304165	880	10
0	1357173	900	8
0	1412384	920	11
0	1468043	940	12
0	1525389	960	8
0	1584518	980	5
0	1644712	1000	9
0	1706433	1020	13
0	1769806	1040	18
0	1834572	1060	6
0	1901871	1080	7
0	1970380	1100	5
0	2040374	1120	15
0	2112114	1140	7
0	2187136	1160	5
0	2263379	1180	13
0	2341027	1200	11
0	2421319	1220	10
0	2503529	1240	8
0	2587332	1260	11
0	2672351	1280	14
0	2760431	1300	7
0	2850424	1320	17
0	2942288	1340	6
0	3036779	1360	10
0	3132778	1380	6
0	3230830	1400	12
0	3330610	1420	10
0	3432593	1440	13
0	3536930	1460	13
0	3643921	1480	15
0	3752889	1500	9
0	3864414	1520	12
0	3978568	1540	6
0	4095033	1560	11
0	4214191	1580	12
0	4335775	1600	11
0	4458343	1620	16
0	4583710	1640	7
0	4711475	1660	16
0	4841586	1680	8
0	4974831	1700	9
0	5110877	1720	14
0	5249480	1740	10
0	5390086	1760	8
0	5533227	1780	8
0	5679467	1800	9
0	5828496	1820	13
0	5979155	1840	15
0	6131993	1860	11
0	6287793	1880	17
0	6446045	1900	13
0	6607557	1920	16
0	6771568	1940	15
0	6937981	1960	15
0	7106131	1980	14
0	7277640	2000	11
1	145111	240	61
1	170942	260	43
1	198240	280	60
1	225694	300	64
1	252793	320	76
1	280367	340	69
1	307995	360	54
1	336082	380	73
1	364595	400	71
1	393779	420	70
1	423069	440	69
1	452973	460	69
1	483645	480	62
1	515286	500	69
1	547629	520	64
1	580529	540	39
1	614398	560	84
1	649152	580	68
1	684973	600	72
1	721076	620	54
1	759041	640	75
1	797829	660	69
1	837697	680	94
1	878693	700	90
1	921220	720	73
1	965175	740	96
1	1009963	760	51
1	1056472	780	76
1	1103745	800	94
1	1151516	820	89
1	1200901	840	99
1	1252113	860	58
1	1304165	880	97
1	1357173	900	96
1	1412384	920	109
1	1468043	940	105
1	1525389	960	95
1	1584518	980	75
1	1644712	1000	105
1	1706433	1020	95
1	1769806	1040	117
1	1834572	1060	74
1	1901871	1080	93
1	1970380	1100	72
1	2040374	1120	122
1	2112114	1140	74
1	2187136	1160	62
1	2263379	1180	122
1	2341027	1200	90
1	2421319	1220	120
1	2503529	1240	97
1	2587332	1260	113
1	2672351	1280	115
1	2760431	1300	96
1	2850424	1320	134
1	2942288	1340	70
1	3036779	1360	108
1	3132778	1380	74
1	3230830	1400	137
1	3330610	1420	120
1	3432593	1440	125
1	3536930	1460	136
1	3643921	1480	124
1	3752889	1500	115
1	3864414	1520	121
1	3978568	1540	70
1	4095033	1560	118
1	4214191	1580	116
1	4335775	1600	116
1	4458343	1620	144
1	4583710	1640	93
1	4711475	1660	134
1	4841586	1680	101
1	4974831	1700	110
1	5110877	1720	113
1	5249480	1740	128
1	5390086	1760	113
1	5533227	1780	118
1	5679467	1800	110
1	5828496	1820	137
1	5979155	1840	150
1	6131993	1860	137
1	6287793	1880	152
1	6446045	1900	149
1	6607557	1920	153
1	6771568	1940	155
1	6937981	1960	144
1	7106131	1980	149
1	7277640	2000	131
2	145111	240	8
2	170942	260	39
2	198240	280	27
2	225694	300	26
2	252793	320	10
2	280367	340	19
2	307995	360	36
2	336082	380	15
2	364595	400	19
2	393779	420	20
2	423069	440	22
2	452973	460	26
2	483645	480	31
2	515286	500	28
2	547629	520	34
2	580529	540	64
2	614398	560	12
2	649152	580	36
2	684973	600	33
2	721076	620	51
2	759041	640	28
2	797829	660	37
2	837697	680	14
2	878693	700	16
2	921220	720	38
2	965175	740	14
2	1009963	760	65
2	1056472	780	33
2	1103745	800	17
2	1151516	820	26
2	1200901	840	16
2	1252113	860	63
2	1304165	880	21
2	1357173	900	23
2	1412384	920	10
2	1468043	940	13
2	1525389	960	30
2	1584518	980	53
2	1644712	1000	19
2	1706433	1020	27
2	1769806	1040	3
2	1834572	1060	58
2	1901871	1080	40
2	1970380	1100	65
2	2040374	1120	6
2	2112114	1140	64
2	2187136	1160	79
2	2263379	1180	12
2	2341027	1200	45
2	2421319	1220	18
2	2503529	1240	44
2	2587332	1260	28
2	2672351	1280	23
2	2760431	1300	50
2	2850424	1320	3
2	2942288	1340	81
2	3036779	1360	40
2	3132778	1380	78
2	3230830	1400	9
2	3330610	1420	28
2	3432593	1440	25
2	3536930	1460	15
2	3643921	1480	27
2	3752889	1500	41
2	3864414	1520	31
2	3978568	1540	91
2	4095033	1560	39
2	4214191	1580	44
2	4335775	1600	45
2	4458343	1620	13
2	4583710	1640	74
2	4711475	1660	25
2	4841586	1680	68
2	4974831	1700	60
2	5110877	1720	53
2	5249480	1740	42
2	5390086	1760	61
2	5533227	1780	58
2	5679467	1800	66
2	5828496	1820	37
2	5979155	1840	21
2	6131993	1860	41
2	6287793	1880	21
2	6446045	1900	29
2	6607557	1920	24
2	6771568	1940	25
2	6937981	1960	34
2	7106131	1980	34
2	7277640	2000	55
3	145111	240	0
3	170942	260	0
3	198240	280	0
3	225694	300	1
3	252793	320	1
3	280367	340	0
3	307995	360	0
3	336082	380	0
3	364595	400	0
3	393779	420	0
3	423069	440	0
3	452973	460	2
3	483645	480	0
3	515286	500	0
3	547629	520	0
3	580529	540	0
3	614398	560	0
3	649152	580	0
3	684973	600	0
3	721076	620	0
3	759041	640	0
3	797829	660	0
3	837697	680	0
3	878693	700	0
3	921220	720	0
3	965175	740	1
3	1009963	760	0
3	1056472	780	0
3	1103745	800	0
3	1151516	820	0
3	1200901	840	0
3	1252113	860	1
3	1304165	880	0
3	1357173	900	0
3	1412384	920	0
3	1468043	940	0
3	1525389	960	0
3	1584518	980	0
3	1644712	1000	0
3	1706433	1020	0
3	1769806	1040	0
3	1834572	1060	0
3	1901871	1080	0
3	1970380	1100	1
3	2040374	1120	0
3	2112114	1140	1
3	2187136	1160	1
3	2263379	1180	1
3	2341027	1200	0
3	2421319	1220	0
3	2503529	1240	0
3	2587332	1260	0
3	2672351	1280	0
3	2760431	1300	1
3	2850424	1320	0
3	2942288	1340	0
3	3036779	1360	1
3	3132778	1380	0
3	3230830	1400	0
3	3330610	1420	0
3	3432593	1440	0
3	3536930	1460	0
3	3643921	1480	2
3	3752889	1500	1
3	3864414	1520	0
3	3978568	1540	0
3	4095033	1560	0
3	4214191	1580	0
3	4335775	1600	0
3	4458343	1620	1
3	4583710	1640	0
3	4711475	1660	0
3	4841586	1680	0
3	4974831	1700	0
3	5110877	1720	1
3	5249480	1740	0
3	5390086	1760	1
3	5533227	1780	0
3	5679467	1800	0
3	5828496	1820	0
3	5979155	1840	0
3	6131993	1860	0
3	6287793	1880	0
3	6446045	1900	0
3	6607557	1920	0
3	6771568	1940	1
3	6937981	1960	0
3	7106131	1980	0
3	7277640	2000	0
4	145111	240	7
4	170942	260	38
4	198240	280	26
4	225694	300	25
4	252793	320	9
4	280367	340	19
4	307995	360	36
4	336082	380	14
4	364595	400	19
4	393779	420	20
4	423069	440	22
4	452973	460	24
4	483645	480	31
4	515286	500	28
4	547629	520	34
4	580529	540	64
4	614398	560	12
4	649152	580	36
4	684973	600	33
4	721076	620	50
4	759041	640	28
4	797829	660	37
4	837697	680	14
4	878693	700	16
4	921220	720	38
4	965175	740	13
4	1009963	760	65
4	1056472	780	33
4	1103745	800	17
4	1151516	820	26
4	1200901	840	16
4	1252113	860	62
4	1304165	880	20
4	1357173	900	23
4	1412384	920	10
4	1468043	940	13
4	1525389	960	30
4	1584518	980	53
4	1644712	1000	19
4	1706433	1020	27
4	1769806	1040	3
4	1834572	1060	58
4	1901871	1080	39
4	1970380	1100	64
4	2040374	1120	6
4	2112114	1140	63
4	2187136	1160	77
4	2263379	1180	10
4	2341027	1200	45
4	2421319	1220	18
4	2503529	1240	44
4	2587332	1260	27
4	2672351	1280	23
4	2760431	1300	49
4	2850424	1320	3
4	2942288	1340	80
4	3036779	1360	39
4	3132778	1380	77
4	3230830	1400	9
4	3330610	1420	28
4	3432593	1440	25
4	3536930	1460	14
4	3643921	1480	25
4	3752889	1500	40
4	3864414	1520	31
4	3978568	1540	91
4	4095033	1560	39
4	4214191	1580	44
4	4335775	1600	45
4	4458343	1620	12
4	4583710	1640	74
4	4711475	1660	24
4	4841586	1680	68
4	4974831	1700	60
4	5110877	1720	52
4	5249480	1740	42
4	5390086	1760	60
4	5533227	1780	56
4	5679467	1800	66
4	5828496	1820	37
4	5979155	1840	21
4	6131993	1860	41
4	6287793	1880	21
4	6446045	1900	28
4	6607557	1920	23
4	6771568	1940	24
4	6937981	1960	34
4	7106131	1980	34
4	7277640	2000	55
5	145111	240	6.1
5	170942	260	10.75
5	198240	280	10
5	225694	300	12.8
5	252793	320	9.5
5	280367	340	11.5
5	307995	360	13.5
5	336082	380	8.1111111111111
5	364595	400	8.875
5	393779	420	8.75
5	423069	440	8.625
5	452973	460	9.8571428571429
5	483645	480	6.8888888888889
5	515286	500	9.8571428571429
5	547629	520	9.1428571428571
5	580529	540	9.75
5	614398	560	7.6363636363636
5	649152	580	13.6
5	684973	600	12
5	721076	620	10.8
5	759041	640	9.375
5	797829	660	9.8571428571429
5	837697	680	11.75
5	878693	700	10
5	921220	720	14.6
5	965175	740	12
5	1009963	760	12.75
5	1056472	780	6.9090909090909
5	1103745	800	10.444444444444
5	1151516	820	11.125
5	1200901	840	11
5	1252113	860	14.5
5	1304165	880	9.7
5	1357173	900	12
5	1412384	920	9.9090909090909
5	1468043	940	8.75
5	1525389	960	11.875
5	1584518	980	15
5	1644712	1000	11.666666666667
5	1706433	1020	7.3076923076923
5	1769806	1040	6.5
5	1834572	1060	12.333333333333
5	1901871	1080	13.285714285714
5	1970380	1100	14.4
5	2040374	1120	8.1333333333333
5	2112114	1140	10.571428571429
5	2187136	1160	12.4
5	2263379	1180	9.3846153846154
5	2341027	1200	8.1818181818182
5	2421319	1220	12
5	2503529	1240	12.125
5	2587332	1260	10.272727272727
5	2672351	1280	8.2142857142857
5	2760431	1300	13.714285714286
5	2850424	1320	7.8823529411765
5	2942288	1340	11.666666666667
5	3036779	1360	10.8
5	3132778	1380	12.333333333333
5	3230830	1400	11.416666666667
5	3330610	1420	12
5	3432593	1440	9.6153846153846
5	3536930	1460	10.461538461538
5	3643921	1480	8.2666666666667
5	3752889	1500	12.777777777778
5	3864414	1520	10.083333333333
5	3978568	1540	11.666666666667
5	4095033	1560	10.727272727273
5	4214191	1580	9.6666666666667
5	4335775	1600	10.545454545455
5	4458343	1620	9
5	4583710	1640	13.285714285714
5	4711475	1660	8.375
5	4841586	1680	12.625
5	4974831	1700	12.222222222222
5	5110877	1720	8.0714285714286
5	5249480	1740	12.8
5	5390086	1760	14.125
5	5533227	1780	14.75
5	5679467	1800	12.222222222222
5	5828496	1820	10.538461538462
5	5979155	1840	10
5	6131993	1860	12.454545454545
5	6287793	1880	8.9411764705882
5	6446045	1900	11.461538461538
5	6607557	1920	9.5625
5	6771568	1940	10.333333333333
5	6937981	1960	9.6
5	7106131	1980	10.642857142857
5	7277640	2000	11.909090909091
6	145111	240	4.0947120370872
6	170942	260	4.4253060157839
6	198240	280	4.8579831205964
6	225694	300	3.8340579025362
6	252793	320	4.3424811867345
6	280367	340	3.6193922141708
6	307995	360	1.7320508075689
6	336082	380	3.8550111687401
6	364595	400	4.853202182948
6	393779	420	4.4641428548571
6	423069	440	5.0409041139179
6	452973	460	5.3674504012169
6	483645	480	3.4075080500435
6	515286	500	4.5250624831256
6	547629	520	4.6700667885507
6	580529	540	4.3493294502333
6	614398	560	4.0809980953862
6	649152	580	1.5165750888103
6	684973	600	3.0331501776206
6	721076	620	3.4205262752974
6	759041	640	4.8088460154178
6	797829	660	4.0999419275794
6	837697	680	3.6154430670982
6	878693	700	4.5825756949558
6	921220	720	0.54772255750517
6	965175	740	2.8284271247462
6	1009963	760	0.95742710775634
6	1056472	780	3.6456699097572
6	1103745	800	4.8762462794426
6	1151516	820	4.0155946010523
6	1200901	840	4.2720018726588
6	1252113	860	1
6	1304165	880	4.3217794688968
6	1357173	900	3.5456210417117
6	1412384	920	5.0290067698214
6	1468043	940	4.3510709235564
6	1525389	960	3.2265638511758
6	1584518	980	0
6	1644712	1000	4.3874821936961
6	1706433	1020	5.0230239130198
6	1769806	1040	2.8127859331777
6	1834572	1060	2.3380903889
6	1901871	1080	1.3801311186847
6	1970380	1100	0.54772255750517
6	2040374	1120	4.2403953095145
6	2112114	1140	4.5039665058384
6	2187136	1160	3.9749213828704
6	2263379	1180	3.9059455009524
6	2341027	1200	5.0954525180436
6	2421319	1220	2.2607766610418
6	2503529	1240	1.5526475085203
6	2587332	1260	5.1979016745396
6	2672351	1280	4.5771770176113
6	2760431	1300	0.95118973121134
6	2850424	1320	3.822341444409
6	2942288	1340	3.9832984656772
6	3036779	1360	3.9101008796307
6	3132778	1380	4.2268979957726
6	3230830	1400	3.3967453227875
6	3330610	1420	2.7080128015453
6	3432593	1440	5.1887452166277
6	3536930	1460	4.3896731961765
6	3643921	1480	4.9636775920778
6	3752889	1500	2.9907264074877
6	3864414	1520	4.9810245994781
6	3978568	1540	5.0464508980735
6	4095033	1560	3.4377582547616
6	4214191	1580	5.2800367308181
6	4335775	1600	3.72461102301
6	4458343	1620	3.9157800414902
6	4583710	1640	1.6035674514745
6	4711475	1660	3.5
6	4841586	1680	3.502550091413
6	4974831	1700	3.2317865716109
6	5110877	1720	5.0301290045284
6	5249480	1740	2.8205594401742
6	5390086	1760	0.99103120896511
6	5533227	1780	0.46291004988628
6	5679467	1800	3.456073558888
6	5828496	1820	3.7106914139053
6	5979155	1840	5.2915026221292
6	6131993	1860	2.5831622621754
6	6287793	1880	5.067921026359
6	6446045	1900	4.0541210435676
6	6607557	1920	4.7041648213755
6	6771568	1940	3.1091263510296
6	6937981	1960	4.1884194086621
6	7106131	1980	3.8949107397127
6	7277640	2000	5.2240701651977
7	145111	240	16.766666666667
7	170942	260	19.583333333333
7	198240	280	23.6
7	225694	300	14.7
7	252793	320	18.857142857143
7	280367	340	13.1
7	307995	360	3
7	336082	380	14.861111111111
7	364595	400	23.553571428571
7	393779	420	19.928571428571
7	423069	440	25.410714285714
7	452973	460	28.809523809524
7	483645	480	11.611111111111
7	515286	500	20.47619047619
7	547629	520	21.809523809524
7	580529	540	18.916666666667
7	614398	560	16.654545454545
7	649152	580	2.3
7	684973	600	9.2
7	721076	620	11.7
7	759041	640	23.125
7	797829	660	16.809523809524
7	837697	680	13.071428571429
7	878693	700	21
7	921220	720	0.3
7	965175	740	8
7	1009963	760	0.91666666666667
7	1056472	780	13.290909090909
7	1103745	800	23.777777777778
7	1151516	820	16.125
7	1200901	840	18.25
7	1252113	860	1
7	1304165	880	18.677777777778
7	1357173	900	12.571428571429
7	1412384	920	25.290909090909
7	1468043	940	18.931818181818
7	1525389	960	10.410714285714
7	1584518	980	0
7	1644712	1000	19.25
7	1706433	1020	25.230769230769
7	1769806	1040	7.9117647058824
7	1834572	1060	5.4666666666667
7	1901871	1080	1.9047619047619
7	1970380	1100	0.3
7	2040374	1120	17.980952380952
7	2112114	1140	20.285714285714
7	2187136	1160	15.8
7	2263379	1180	15.25641025641
7	2341027	1200	25.963636363636
7	2421319	1220	5.1111111111111
7	2503529	1240	2.4107142857143
7	2587332	1260	27.018181818182
7	2672351	1280	20.950549450549
7	2760431	1300	0.9047619047619
7	2850424	1320	14.610294117647
7	2942288	1340	15.866666666667
7	3036779	1360	15.288888888889
7	3132778	1380	17.866666666667
7	3230830	1400	11.537878787879
7	3330610	1420	7.3333333333333
7	3432593	1440	26.923076923077
7	3536930	1460	19.269230769231
7	3643921	1480	24.638095238095
7	3752889	1500	8.9444444444444
7	3864414	1520	24.810606060606
7	3978568	1540	25.466666666667
7	4095033	1560	11.818181818182
7	4214191	1580	27.878787878788
7	4335775	1600	13.872727272727
7	4458343	1620	15.333333333333
7	4583710	1640	2.5714285714286
7	4711475	1660	12.25
7	4841586	1680	12.267857142857
7	4974831	1700	10.444444444444
7	5110877	1720	25.302197802198
7	5249480	1740	7.9555555555556
7	5390086	1760	0.98214285714286
7	5533227	1780	0.21428571428571
7	5679467	1800	11.944444444444
7	5828496	1820	13.769230769231
7	5979155	1840	28
7	6131993	1860	6.6727272727273
7	6287793	1880	25.683823529412
7	6446045	1900	16.435897435897
7	6607557	1920	22.129166666667
7	6771568	1940	9.6666666666667
7	6937981	1960	17.542857142857
7	7106131	1980	15.17032967033
7	7277640	2000	27.290909090909
8	145111	240	22.730769230769
8	170942	260	22.588235294118
8	198240	280	22.565217391304
8	225694	300	22.484210526316
8	252793	320	22.085106382979
8	280367	340	22.31914893617
8	307995	360	22.425531914894
8	336082	380	22.270833333333
8	364595	400	21.775510204082
8	393779	420	22.336734693878
8	423069	440	21.929292929293
8	452973	460	21.901960784314
8	483645	480	22.382352941176
8	515286	500	22.423076923077
8	547629	520	22.885714285714
8	580529	540	23.299065420561
8	614398	560	23.383177570093
8	649152	580	23.908256880734
8	684973	600	24.162162162162
8	721076	620	24.697247706422
8	759041	640	25.261261261261
8	797829	660	25.823008849558
8	837697	680	26.051724137931
8	878693	700	26.834782608696
8	921220	720	27.629310344828
8	965175	740	27.898305084746
8	1009963	760	28.383333333333
8	1056472	780	28.75
8	1103745	800	29.141666666667
8	1151516	820	28.756097560976
8	1200901	840	29.693548387097
8	1252113	860	29.808
8	1304165	880	30.346456692913
8	1357173	900	30.944881889764
8	1412384	920	31.315384615385
8	1468043	940	31.623076923077
8	1525389	960	31.744360902256
8	1584518	980	32.661654135338
8	1644712	1000	32.932330827068
8	1706433	1020	33.2
8	1769806	1040	33.507246376812
8	1834572	1060	34.768115942029
8	1901871	1080	35.251798561151
8	1970380	1100	35.774647887324
8	2040374	1120	35.587412587413
8	2112114	1140	36.765517241379
8	2187136	1160	37.675862068966
8	2263379	1180	38.424657534247
8	2341027	1200	39.157534246575
8	2421319	1220	39.817567567568
8	2503529	1240	40.295302013423
8	2587332	1260	41.013245033113
8	2672351	1280	41.315789473684
8	2760431	1300	42.254901960784
8	2850424	1320	43.116883116883
8	2942288	1340	43.858974358974
8	3036779	1360	44.430379746835
8	3132778	1380	45.184713375796
8	3230830	1400	45.556962025316
8	3330610	1420	46.53164556962
8	3432593	1440	46.699386503067
8	3536930	1460	47.631901840491
8	3643921	1480	47.722891566265
8	3752889	1500	48.836363636364
8	3864414	1520	50.243902439024
8	3978568	1540	50.299401197605
8	4095033	1560	51.172619047619
8	4214191	1580	51.133720930233
8	4335775	1600	51.895348837209
8	4458343	1620	52.219653179191
8	4583710	1640	52.850574712644
8	4711475	1660	53.580459770115
8	4841586	1680	53.293785310734
8	4974831	1700	54.223463687151
8	5110877	1720	54.961111111111
8	5249480	1740	55.922222222222
8	5390086	1760	55.901098901099
8	5533227	1780	56.983516483516
8	5679467	1800	56.918918918919
8	5828496	1820	57.877005347594
8	5979155	1840	58.279569892473
8	6131993	1860	58.428571428571
8	6287793	1880	59.094736842105
8	6446045	1900	60.084210526316
8	6607557	1920	60.463541666667
8	6771568	1940	60.748717948718
8	6937981	1960	62.072538860104
8	7106131	1980	61.97461928934
8	7277640	2000	62.248730964467
9	145111	240	4.9770201195825
9	170942	260	4.4328162542539
9	198240	280	5.4071672985011
9	225694	300	4.6169510937431
9	252793	320	4.8916421467424
9	280367	340	4.291057883847
9	307995	360	4.1826301384792
9	336082	380	4.7494690377295
9	364595	400	4.8344353549226
9	393779	420	4.3999622246528
9	423069	440	4.0311352663692
9	452973	460	4.2578054216166
9	483645	480	4.0785459398063
9	515286	500	4.7207295546352
9	547629	520	3.6117178038304
9	580529	540	3.4809859622332
9	614398	560	4.0414009802624
9	649152	580	3.0475894676007
9	684973	600	4.0822020362022
9	721076	620	3.312447308193
9	759041	640	3.5180358975679
9	797829	660	4.6005242102232
9	837697	680	5.2500017848216
9	878693	700	5.872819393423
9	921220	720	5.957137001897
9	965175	740	7.545179964219
9	1009963	760	7.2716594263156
9	1056472	780	7.3292896923889
9	1103745	800	8.0547452826658
9	1151516	820	8.7359643526477
9	1200901	840	8.174098910439
9	1252113	860	8.983583594176
9	1304165	880	9.3794591111827
9	1357173	900	9.4333981880777
9	1412384	920	10.57203757717
9	1468043	940	10.749627997613
9	1525389	960	11.081416422523
9	1584518	980	12.218271971534
9	1644712	1000	11.695113903809
9	1706433	1020	12.177664898824
9	1769806	1040	13.007716057546
9	1834572	1060	13.517379920978
9	1901871	1080	14.172893870159
9	1970380	1100	14.988598203844
9	2040374	1120	14.860538855948
9	2112114	1140	15.960460603692
9	2187136	1160	16.085657327182
9	2263379	1180	16.588253266503
9	2341027	1200	16.919153951361
9	2421319	1220	18.114164473893
9	2503529	1240	18.576904927859
9	2587332	1260	19.056752698179
9	2672351	1280	19.241725168292
9	2760431	1300	19.91941971378
9	2850424	1320	20.523841723967
9	2942288	1340	20.714790950009
9	3036779	1360	21.821618185576
9	3132778	1380	21.876641815618
9	3230830	1400	22.22596566963
9	3330610	1420	23.152683707941
9	3432593	1440	24.049623330467
9	3536930	1460	24.060355450104
9	3643921	1480	24.509398693469
9	3752889	1500	24.922634170836
9	3864414	1520	25.37525047807
9	3978568	1540	25.671585475854
9	4095033	1560	25.943743150679
9	4214191	1580	26.300770942229
9	4335775	1600	26.683560030494
9	4458343	1620	27.001900576862
9	4583710	1640	26.925299676579
9	4711475	1660	27.156405642453
9	4841586	1680	27.529191444951
9	4974831	1700	27.837919883517
9	5110877	1720	28.1250924545
9	5249480	1740	27.972144075779
9	5390086	1760	28.931068751728
9	5533227	1780	28.466608387563
9	5679467	1800	29.601316783999
9	5828496	1820	29.801689632676
9	5979155	1840	29.939710804503
9	6131993	1860	30.181568078411
9	6287793	1880	30.447829849153
9	6446045	1900	30.371304738023
9	6607557	1920	30.783634802994
9	6771568	1940	30.615733370135
9	6937981	1960	31.241247478957
9	7106131	1980	31.569559826436
9	7277640	2000	31.35842921074
10	145111	240	24.770729270729
10	170942	260	19.649859943978
10	198240	280	29.23745819398
10	225694	300	21.316237402016
10	252793	320	23.928162891787
10	280367	340	18.413177762526
10	307995	360	17.494394875315
10	336082	380	22.557456140351
10	364595	400	23.371765200926
10	393779	420	19.359667578372
10	423069	440	16.250051535766
10	452973	460	18.128907008348
10	483645	480	16.63453698311
10	515286	500	22.285287528006
10	547629	520	13.044505494505
10	580529	540	12.117263269265
10	614398	560	16.332921883266
10	649152	580	9.2878015630309
10	684973	600	16.664373464373
10	721076	620	10.972307169555
10	759041	640	12.376576576577
10	797829	660	21.16482300885
10	837697	680	27.56251874063
10	878693	700	34.490007627765
10	921220	720	35.48748125937
10	965175	740	56.929740692453
10	1009963	760	52.877030812325
10	1056472	780	53.718487394958
10	1103745	800	64.878921568627
10	1151516	820	76.317073170732
10	1200901	840	66.81589299764
10	1252113	860	80.704774193548
10	1304165	880	87.974253218348
10	1357173	900	88.989001374828
10	1412384	920	111.76797853309
10	1468043	940	115.55450208706
10	1525389	960	122.79778992937
10	1584518	980	149.28616997038
10	1644712	1000	136.77568922306
10	1706433	1020	148.29552238806
10	1769806	1040	169.20067703375
10	1834572	1060	182.71955992807
10	1901871	1080	200.87092065478
10	1970380	1100	224.65807611627
10	2040374	1120	220.83561508914
10	2112114	1140	254.73630268199
10	2187136	1160	258.74837164751
10	2263379	1180	275.17014643363
10	2341027	1200	286.25777042985
10	2421319	1220	328.12295458724
10	2503529	1240	345.10139669871
10	2587332	1260	363.15982339956
10	2672351	1280	370.24398745207
10	2760431	1300	396.78328173375
10	2850424	1320	421.22807911043
10	2942288	1340	429.10256410256
10	3036779	1360	476.18302023704
10	3132778	1380	478.58745712886
10	3230830	1400	493.99354994759
10	3330610	1420	536.04676287995
10	3432593	1440	578.38438233735
10	3536930	1460	578.90070438537
10	3643921	1480	600.71062431544
10	3752889	1500	621.1376940133
10	3864414	1520	643.90333682478
10	3978568	1540	659.03030084409
10	4095033	1560	673.07780866838
10	4214191	1580	691.73055215558
10	4335775	1600	712.01237590099
10	4458343	1620	729.10263476274
10	4583710	1640	724.97176267358
10	4711475	1660	737.47036741745
10	4841586	1680	757.85638161274
10	4974831	1700	774.94978344109
10	5110877	1720	791.02082557418
10	5249480	1740	782.44084419615
10	5390086	1760	837.00673911724
10	5533227	1780	810.34779309089
10	5679467	1800	876.23795534665
10	5828496	1820	888.14070496234
10	5979155	1840	896.38628305725
10	6131993	1860	910.92705167173
10	6287793	1880	927.07034252297
10	6446045	1900	922.41615148984
10	6607557	1920	947.63217168412
10	6771568	1940	937.32312979117
10	6937981	1960	976.01554404145
10	7106131	1980	996.63710763493
10	7277640	2000	983.35108256501
11	145111	240	467.27119132353
11	170942	260	184.9801181596
11	198240	280	277.21422205224
11	225694	300	232.80568720347
11	252793	320	372.91132117503
11	280367	340	274.91245914768
11	307995	360	181.83626687064
11	336082	380	420.14096021235
11	364595	400	374.7298049408
11	393779	420	375.25409975316
11	423069	440	378.87348425425
11	452973	460	329.07792164819
11	483645	480	419.9528669267
11	515286	500	326.9254503618
11	547629	520	327.05009035517
11	580529	540	192.16237803652
11	614398	560	517.92033928813
11	649152	580	233.62025485934
11	684973	600	279.72119048743
11	721076	620	232.85976948933
11	759041	640	375.54709303358
11	797829	660	322.00331972742
11	837697	680	373.460126095
11	878693	700	423.95122225203
11	921220	720	230.28215176402
11	965175	740	372.00111052743
11	1009963	760	181.41235961766
11	1056472	780	532.40189554318
11	1103745	800	422.59600519504
11	1151516	820	374.86891213866
11	1200901	840	428.96794960544
11	1252113	860	189.43170607806
11	1304165	880	476.35623139287
11	1357173	900	378.63460498225
11	1412384	920	517.58628216406
11	1468043	940	584.77710233499
11	1525389	960	377.31587978388
11	1584518	980	234.64278243868
11	1644712	1000	422.44488243203
11	1706433	1020	638.29227806493
11	1769806	1040	863.36898609438
11	1834572	1060	288.26401518968
11	1901871	1080	324.47038683258
11	1970380	1100	235.7752724084
11	2040374	1120	717.20863437471
11	2112114	1140	328.33365203283
11	2187136	1160	235.94811635178
11	2263379	1180	625.66488918107
11	2341027	1200	529.65835295376
11	2421319	1220	476.79829383245
11	2503529	1240	386.7169021552
11	2587332	1260	521.72147950838
11	2672351	1280	682.40465080603
11	2760431	1300	329.92872753496
11	2850424	1320	822.04286170021
11	2942288	1340	281.94121657498
11	3036779	1360	476.72235323011
11	3132778	1380	289.38538965213
11	3230830	1400	564.91813203061
11	3330610	1420	478.01532748677
11	3432593	1440	641.60676723698
11	3536930	1460	621.65218070549
11	3643921	1480	716.14187688856
11	3752889	1500	423.7274995637
11	3864414	1520	565.43542661249
11	3978568	1540	281.21083729237
11	4095033	1560	519.23826940976
11	4214191	1580	569.99483996317
11	4335775	1600	527.63614612963
11	4458343	1620	768.56295332476
11	4583710	1640	331.03820624303
11	4711475	1660	778.20016420011
11	4841586	1680	377.26135346447
11	4974831	1700	417.82898488089
11	5110877	1720	677.05160535435
11	5249480	1740	478.11727392427
11	5390086	1760	385.02598432041
11	5533227	1780	384.35755996659
11	5679467	1800	426.32859428872
11	5828496	1820	617.05470778734
11	5979155	1840	718.80327650488
11	6131993	1860	530.59882361185
11	6287793	1880	812.46500188426
11	6446045	1900	620.13688556596
11	6607557	1920	759.71508362363
11	6771568	1940	716.16324094673
11	6937981	1960	710.60098849106
11	7106131	1980	677.35702318317
11	7277640	2000	541.00778872162
12	145111	240	46.727119132353
12	170942	260	46.2450295399
12	198240	280	46.202370342041
12	225694	300	46.561137440694
12	252793	320	46.613915146879
12	280367	340	45.81874319128
12	307995	360	45.459066717661
12	336082	380	46.682328912484
12	364595	400	46.8412256176
12	393779	420	46.906762469145
12	423069	440	47.359185531781
12	452973	460	47.011131664027
12	483645	480	46.661429658522
12	515286	500	46.703635765971
12	547629	520	46.721441479311
12	580529	540	48.040594509129
12	614398	560	47.083667208012
12	649152	580	46.724050971867
12	684973	600	46.620198414571
12	721076	620	46.571953897867
12	759041	640	46.943386629197
12	797829	660	46.000474246774
12	837697	680	46.682515761875
12	878693	700	47.105691361336
12	921220	720	46.056430352805
12	965175	740	46.500138815929
12	1009963	760	45.353089904415
12	1056472	780	48.400172322107
12	1103745	800	46.955111688338
12	1151516	820	46.858614017332
12	1200901	840	47.663105511715
12	1252113	860	47.357926519516
12	1304165	880	47.635623139287
12	1357173	900	47.329325622781
12	1412384	920	47.053298378551
12	1468043	940	48.731425194583
12	1525389	960	47.164484972985
12	1584518	980	46.928556487736
12	1644712	1000	46.938320270226
12	1706433	1020	49.099406004995
12	1769806	1040	47.96494367191
12	1834572	1060	48.044002531613
12	1901871	1080	46.352912404654
12	1970380	1100	47.15505448168
12	2040374	1120	47.813908958314
12	2112114	1140	46.904807433261
12	2187136	1160	47.189623270357
12	2263379	1180	48.128068398544
12	2341027	1200	48.150759359433
12	2421319	1220	47.679829383245
12	2503529	1240	48.3396127694
12	2587332	1260	47.429225409853
12	2672351	1280	48.743189343288
12	2760431	1300	47.132675362137
12	2850424	1320	48.355462452954
12	2942288	1340	46.990202762497
12	3036779	1360	47.672235323011
12	3132778	1380	48.230898275355
12	3230830	1400	47.076511002551