version 2
run statisticRVV-103-20150325-04:38:12-7468
attr c 5
attr configname statisticRVV
attr datetime 20150325-04:38:12
attr experiment statisticRVV
attr inifile omnetpp.ini
attr iterationvars "$sc=\"erlangen-low.launchd.xml\", $p=1/5, $c=5"
attr iterationvars2 "$sc=\"erlangen-low.launchd.xml\", $p=1/5, $c=5, $repetition=3"
attr measurement "$sc=\"erlangen-low.launchd.xml\", $p=1/5, $c=5"
attr network RSUExampleScenario
attr p 1/5
attr processid 7468
attr repetition 3
attr replication #3
attr resultdir results
attr runnumber 103
attr sc "\"erlangen-low.launchd.xml\""
attr seedset 103

vector 0  RSUExampleScenario.rsu[0].appl  Number_CH  ETV
vector 1  RSUExampleScenario.rsu[0].appl  Number_ON  ETV
vector 2  RSUExampleScenario.rsu[0].appl  Number_FN  ETV
vector 3  RSUExampleScenario.rsu[0].appl  Number_CH_Losts  ETV
vector 4  RSUExampleScenario.rsu[0].appl  Mean_Cluster_Size  ETV
vector 5  RSUExampleScenario.rsu[0].appl  StdDev_Cluster_Size  ETV
vector 6  RSUExampleScenario.rsu[0].appl  Variance_Cluster_Size  ETV
vector 7  RSUExampleScenario.rsu[0].appl  Mean_Neighbors  ETV
vector 8  RSUExampleScenario.rsu[0].appl  StdDev_Neighbors  ETV
vector 9  RSUExampleScenario.rsu[0].appl  Variance_Neighbors  ETV
vector 10  RSUExampleScenario.rsu[0].appl  Total_CH_Utility  ETV
vector 11  RSUExampleScenario.rsu[0].appl  Mean_CH_Utility  ETV
vector 12  RSUExampleScenario.rsu[0].appl  StdDev_CH_Utility  ETV
vector 13  RSUExampleScenario.rsu[0].appl  Variance_CH_Utility  ETV
vector 14  RSUExampleScenario.rsu[0].appl  Total_exp_CH_Utility  ETV
vector 15  RSUExampleScenario.rsu[0].appl  Mean_exp_CH_Utility  ETV
vector 16  RSUExampleScenario.rsu[0].appl  StdDev_exp_CH_Utility  ETV
vector 17  RSUExampleScenario.rsu[0].appl  Variance_exp_CH_Utility  ETV
vector 18  RSUExampleScenario.rsu[0].appl  Total_ON_Utility  ETV
vector 19  RSUExampleScenario.rsu[0].appl  Mean_ON_Utility  ETV
vector 20  RSUExampleScenario.rsu[0].appl  StdDev_ON_Utility  ETV
vector 21  RSUExampleScenario.rsu[0].appl  Variance_ON_Utility  ETV
vector 22  RSUExampleScenario.rsu[0].appl  Total_exp_ON_Utility  ETV
vector 23  RSUExampleScenario.rsu[0].appl  Mean_exp_ON_Utility  ETV
vector 24  RSUExampleScenario.rsu[0].appl  StdDev_exp_ON_Utility  ETV
vector 25  RSUExampleScenario.rsu[0].appl  Variance_exp_ON_Utility  ETV
0	34650	240	12
0	39957	260	8
0	45268	280	4
0	50509	300	7
0	55806	320	5
0	61067	340	3
0	66297	360	5
0	71502	380	6
0	76836	400	8
0	82250	420	2
0	87689	440	6
0	92991	460	7
0	98320	480	4
0	103563	500	5
0	108848	520	4
0	114236	540	5
0	119552	560	3
0	124818	580	5
0	130279	600	5
0	135585	620	7
0	140916	640	9
0	146277	660	6
0	151701	680	8
0	157123	700	6
0	162492	720	8
0	167876	740	8
0	173142	760	5
0	178428	780	9
0	183814	800	7
0	189136	820	4
0	194331	840	5
0	199624	860	3
0	204951	880	4
0	210335	900	9
0	215530	920	5
0	220864	940	5
0	226142	960	5
0	231441	980	8
0	236617	1000	6
0	241964	1020	7
0	247258	1040	8
0	252544	1060	7
0	257807	1080	7
0	263120	1100	10
0	268317	1120	12
0	273695	1140	3
0	278995	1160	5
0	284316	1180	6
0	289499	1200	2
0	294842	1220	7
0	300187	1240	6
0	305441	1260	5
0	310656	1280	7
0	315977	1300	7
0	321267	1320	6
0	326531	1340	5
0	331775	1360	5
0	337104	1380	7
0	342535	1400	8
0	347909	1420	9
0	353168	1440	8
0	358503	1460	6
0	363879	1480	4
0	369097	1500	7
0	374519	1520	6
0	379746	1540	7
0	385148	1560	7
0	390408	1580	7
0	395707	1600	7
0	400963	1620	4
0	406157	1640	4
0	411350	1660	12
0	416698	1680	7
0	422083	1700	10
0	427455	1720	8
0	432759	1740	8
0	438040	1760	4
0	443262	1780	3
0	448531	1800	5
0	453367	1820	7
0	457692	1840	6
0	461562	1860	7
0	464925	1880	3
0	467850	1900	4
0	470304	1920	2
0	472363	1940	4
0	473882	1960	3
0	474953	1980	3
0	475551	2000	2
1	34650	240	18
1	39957	260	11
1	45268	280	4
1	50509	300	10
1	55806	320	8
1	61067	340	4
1	66297	360	7
1	71502	380	7
1	76836	400	10
1	82250	420	2
1	87689	440	9
1	92991	460	9
1	98320	480	5
1	103563	500	8
1	108848	520	6
1	114236	540	7
1	119552	560	6
1	124818	580	7
1	130279	600	6
1	135585	620	7
1	140916	640	12
1	146277	660	7
1	151701	680	9
1	157123	700	8
1	162492	720	8
1	167876	740	9
1	173142	760	7
1	178428	780	13
1	183814	800	10
1	189136	820	7
1	194331	840	8
1	199624	860	6
1	204951	880	7
1	210335	900	14
1	215530	920	5
1	220864	940	8
1	226142	960	7
1	231441	980	10
1	236617	1000	8
1	241964	1020	8
1	247258	1040	9
1	252544	1060	9
1	257807	1080	8
1	263120	1100	12
1	268317	1120	15
1	273695	1140	5
1	278995	1160	6
1	284316	1180	10
1	289499	1200	4
1	294842	1220	9
1	300187	1240	8
1	305441	1260	8
1	310656	1280	10
1	315977	1300	8
1	321267	1320	7
1	326531	1340	7
1	331775	1360	5
1	337104	1380	10
1	342535	1400	11
1	347909	1420	12
1	353168	1440	12
1	358503	1460	6
1	363879	1480	5
1	369097	1500	8
1	374519	1520	8
1	379746	1540	9
1	385148	1560	10
1	390408	1580	10
1	395707	1600	10
1	400963	1620	5
1	406157	1640	4
1	411350	1660	16
1	416698	1680	7
1	422083	1700	11
1	427455	1720	12
1	432759	1740	10
1	438040	1760	6
1	443262	1780	4
1	448531	1800	6
1	453367	1820	8
1	457692	1840	8
1	461562	1860	7
1	464925	1880	4
1	467850	1900	4
1	470304	1920	3
1	472363	1940	6
1	473882	1960	4
1	474953	1980	4
1	475551	2000	4
2	34650	240	10
2	39957	260	21
2	45268	280	34
2	50509	300	23
2	55806	320	28
2	61067	340	33
2	66297	360	27
2	71502	380	26
2	76836	400	22
2	82250	420	37
2	87689	440	25
2	92991	460	24
2	98320	480	32
2	103563	500	28
2	108848	520	30
2	114236	540	28
2	119552	560	32
2	124818	580	28
2	130279	600	30
2	135585	620	26
2	140916	640	19
2	146277	660	27
2	151701	680	24
2	157123	700	27
2	162492	720	25
2	167876	740	23
2	173142	760	29
2	178428	780	18
2	183814	800	23
2	189136	820	30
2	194331	840	27
2	199624	860	31
2	204951	880	29
2	210335	900	17
2	215530	920	29
2	220864	940	27
2	226142	960	28
2	231441	980	22
2	236617	1000	26
2	241964	1020	25
2	247258	1040	22
2	252544	1060	25
2	257807	1080	25
2	263120	1100	19
2	268317	1120	14
2	273695	1140	33
2	278995	1160	29
2	284316	1180	24
2	289499	1200	33
2	294842	1220	24
2	300187	1240	26
2	305441	1260	27
2	310656	1280	22
2	315977	1300	26
2	321267	1320	27
2	326531	1340	29
2	331775	1360	30
2	337104	1380	24
2	342535	1400	22
2	347909	1420	19
2	353168	1440	20
2	358503	1460	29
2	363879	1480	33
2	369097	1500	26
2	374519	1520	26
2	379746	1540	24
2	385148	1560	24
2	390408	1580	23
2	395707	1600	23
2	400963	1620	31
2	406157	1640	32
2	411350	1660	12
2	416698	1680	27
2	422083	1700	20
2	427455	1720	22
2	432759	1740	21
2	438040	1760	30
2	443262	1780	34
2	448531	1800	29
2	453367	1820	23
2	457692	1840	21
2	461562	1860	17
2	464925	1880	20
2	467850	1900	16
2	470304	1920	16
2	472363	1940	7
2	473882	1960	7
2	474953	1980	3
2	475551	2000	1
3	34650	240	2
3	39957	260	5
3	45268	280	0
3	50509	300	5
3	55806	320	0
3	61067	340	1
3	66297	360	0
3	71502	380	2
3	76836	400	1
3	82250	420	3
3	87689	440	1
3	92991	460	3
3	98320	480	2
3	103563	500	3
3	108848	520	2
3	114236	540	2
3	119552	560	2
3	124818	580	4
3	130279	600	3
3	135585	620	2
3	140916	640	1
3	146277	660	1
3	151701	680	2
3	157123	700	4
3	162492	720	1
3	167876	740	2
3	173142	760	5
3	178428	780	2
3	183814	800	2
3	189136	820	0
3	194331	840	3
3	199624	860	5
3	204951	880	1
3	210335	900	3
3	215530	920	1
3	220864	940	3
3	226142	960	3
3	231441	980	2
3	236617	1000	3
3	241964	1020	3
3	247258	1040	0
3	252544	1060	2
3	257807	1080	1
3	263120	1100	5
3	268317	1120	2
3	273695	1140	2
3	278995	1160	1
3	284316	1180	3
3	289499	1200	0
3	294842	1220	4
3	300187	1240	1
3	305441	1260	4
3	310656	1280	2
3	315977	1300	2
3	321267	1320	1
3	326531	1340	2
3	331775	1360	4
3	337104	1380	3
3	342535	1400	2
3	347909	1420	1
3	353168	1440	1
3	358503	1460	0
3	363879	1480	3
3	369097	1500	3
3	374519	1520	0
3	379746	1540	0
3	385148	1560	1
3	390408	1580	1
3	395707	1600	3
3	400963	1620	2
3	406157	1640	1
3	411350	1660	0
3	416698	1680	1
3	422083	1700	1
3	427455	1720	0
3	432759	1740	1
3	438040	1760	3
3	443262	1780	2
3	448531	1800	4
3	453367	1820	1
3	457692	1840	1
3	461562	1860	0
3	464925	1880	0
3	467850	1900	0
3	470304	1920	4
3	472363	1940	1
3	473882	1960	2
3	474953	1980	0
3	475551	2000	0
4	34650	240	1.5
4	39957	260	1.375
4	45268	280	1
4	50509	300	1.4285714285714
4	55806	320	1.6
4	61067	340	1.3333333333333
4	66297	360	1.4
4	71502	380	1.1666666666667
4	76836	400	1.25
4	82250	420	1
4	87689	440	1.5
4	92991	460	1.2857142857143
4	98320	480	1.25
4	103563	500	1.6
4	108848	520	1.5
4	114236	540	1.4
4	119552	560	2
4	124818	580	1.4
4	130279	600	1.2
4	135585	620	1
4	140916	640	1.3333333333333
4	146277	660	1.1666666666667
4	151701	680	1.125
4	157123	700	1.3333333333333
4	162492	720	1
4	167876	740	1.125
4	173142	760	1.4
4	178428	780	1.4444444444444
4	183814	800	1.4285714285714
4	189136	820	1.75
4	194331	840	1.6
4	199624	860	2
4	204951	880	1.75
4	210335	900	1.5555555555556
4	215530	920	1
4	220864	940	1.6
4	226142	960	1.4
4	231441	980	1.25
4	236617	1000	1.3333333333333
4	241964	1020	1.1428571428571
4	247258	1040	1.125
4	252544	1060	1.2857142857143
4	257807	1080	1.1428571428571
4	263120	1100	1.2
4	268317	1120	1.25
4	273695	1140	1.6666666666667
4	278995	1160	1.2
4	284316	1180	1.6666666666667
4	289499	1200	2
4	294842	1220	1.2857142857143
4	300187	1240	1.3333333333333
4	305441	1260	1.6
4	310656	1280	1.4285714285714
4	315977	1300	1.1428571428571
4	321267	1320	1.1666666666667
4	326531	1340	1.4
4	331775	1360	1
4	337104	1380	1.4285714285714
4	342535	1400	1.375
4	347909	1420	1.3333333333333
4	353168	1440	1.5
4	358503	1460	1
4	363879	1480	1.25
4	369097	1500	1.1428571428571
4	374519	1520	1.3333333333333
4	379746	1540	1.2857142857143
4	385148	1560	1.4285714285714
4	390408	1580	1.4285714285714
4	395707	1600	1.4285714285714
4	400963	1620	1.25
4	406157	1640	1
4	411350	1660	1.3333333333333
4	416698	1680	1
4	422083	1700	1.1
4	427455	1720	1.5
4	432759	1740	1.25
4	438040	1760	1.5
4	443262	1780	1.3333333333333
4	448531	1800	1.2
4	453367	1820	1.1428571428571
4	457692	1840	1.3333333333333
4	461562	1860	1
4	464925	1880	1.3333333333333
4	467850	1900	1
4	470304	1920	1.5
4	472363	1940	1.5
4	473882	1960	1.3333333333333
4	474953	1980	1.3333333333333
4	475551	2000	2
5	34650	240	0.52223296786709
5	39957	260	0.51754916950677
5	45268	280	0
5	50509	300	0.53452248382485
5	55806	320	0.54772255750517
5	61067	340	0.57735026918963
5	66297	360	0.54772255750517
5	71502	380	0.40824829046386
5	76836	400	0.46291004988628
5	82250	420	0
5	87689	440	0.54772255750517
5	92991	460	0.48795003647427
5	98320	480	0.5
5	103563	500	0.54772255750517
5	108848	520	0.57735026918963
5	114236	540	0.54772255750517
5	119552	560	0
5	124818	580	0.54772255750517
5	130279	600	0.44721359549996
5	135585	620	0
5	140916	640	0.5
5	146277	660	0.40824829046386
5	151701	680	0.35355339059327
5	157123	700	0.51639777949432
5	162492	720	0
5	167876	740	0.35355339059327
5	173142	760	0.54772255750517
5	178428	780	0.52704627669473
5	183814	800	0.53452248382485
5	189136	820	0.5
5	194331	840	0.54772255750517
5	199624	860	0
5	204951	880	0.5
5	210335	900	0.52704627669473
5	215530	920	0
5	220864	940	0.54772255750517
5	226142	960	0.54772255750517
5	231441	980	0.46291004988628
5	236617	1000	0.51639777949432
5	241964	1020	0.37796447300923
5	247258	1040	0.35355339059327
5	252544	1060	0.48795003647427
5	257807	1080	0.37796447300923
5	263120	1100	0.42163702135578
5	268317	1120	0.45226701686665
5	273695	1140	0.57735026918963
5	278995	1160	0.44721359549996
5	284316	1180	0.51639777949432
5	289499	1200	0
5	294842	1220	0.48795003647427
5	300187	1240	0.51639777949432
5	305441	1260	0.54772255750517
5	310656	1280	0.53452248382485
5	315977	1300	0.37796447300923
5	321267	1320	0.40824829046386
5	326531	1340	0.54772255750517
5	331775	1360	0
5	337104	1380	0.78679579246944
5	342535	1400	0.51754916950677
5	347909	1420	0.5
5	353168	1440	0.53452248382485
5	358503	1460	0
5	363879	1480	0.5
5	369097	1500	0.37796447300923
5	374519	1520	0.51639777949432
5	379746	1540	0.48795003647427
5	385148	1560	0.53452248382485
5	390408	1580	0.53452248382485
5	395707	1600	0.53452248382485
5	400963	1620	0.5
5	406157	1640	0
5	411350	1660	0.49236596391733
5	416698	1680	0
5	422083	1700	0.31622776601684
5	427455	1720	0.53452248382485
5	432759	1740	0.46291004988628
5	438040	1760	0.57735026918963
5	443262	1780	0.57735026918963
5	448531	1800	0.44721359549996
5	453367	1820	0.37796447300923
5	457692	1840	0.51639777949432
5	461562	1860	0
5	464925	1880	0.57735026918963
5	467850	1900	0
5	470304	1920	0.70710678118655
5	472363	1940	0.57735026918963
5	473882	1960	0.57735026918963
5	474953	1980	0.57735026918963
5	475551	2000	0
6	34650	240	0.27272727272727
6	39957	260	0.26785714285714
6	45268	280	0
6	50509	300	0.28571428571429
6	55806	320	0.3
6	61067	340	0.33333333333333
6	66297	360	0.3
6	71502	380	0.16666666666667
6	76836	400	0.21428571428571
6	82250	420	0
6	87689	440	0.3
6	92991	460	0.23809523809524
6	98320	480	0.25
6	103563	500	0.3
6	108848	520	0.33333333333333
6	114236	540	0.3
6	119552	560	0
6	124818	580	0.3
6	130279	600	0.2
6	135585	620	0
6	140916	640	0.25
6	146277	660	0.16666666666667
6	151701	680	0.125
6	157123	700	0.26666666666667
6	162492	720	0
6	167876	740	0.125
6	173142	760	0.3
6	178428	780	0.27777777777778
6	183814	800	0.28571428571429
6	189136	820	0.25
6	194331	840	0.3
6	199624	860	0
6	204951	880	0.25
6	210335	900	0.27777777777778
6	215530	920	0
6	220864	940	0.3
6	226142	960	0.3
6	231441	980	0.21428571428571
6	236617	1000	0.26666666666667
6	241964	1020	0.14285714285714
6	247258	1040	0.125
6	252544	1060	0.23809523809524
6	257807	1080	0.14285714285714
6	263120	1100	0.17777777777778
6	268317	1120	0.20454545454545
6	273695	1140	0.33333333333333
6	278995	1160	0.2
6	284316	1180	0.26666666666667
6	289499	1200	0
6	294842	1220	0.23809523809524
6	300187	1240	0.26666666666667
6	305441	1260	0.3
6	310656	1280	0.28571428571429
6	315977	1300	0.14285714285714
6	321267	1320	0.16666666666667
6	326531	1340	0.3
6	331775	1360	0
6	337104	1380	0.61904761904762
6	342535	1400	0.26785714285714
6	347909	1420	0.25
6	353168	1440	0.28571428571429
6	358503	1460	0
6	363879	1480	0.25
6	369097	1500	0.14285714285714
6	374519	1520	0.26666666666667
6	379746	1540	0.23809523809524
6	385148	1560	0.28571428571429
6	390408	1580	0.28571428571429
6	395707	1600	0.28571428571429
6	400963	1620	0.25
6	406157	1640	0
6	411350	1660	0.24242424242424
6	416698	1680	0
6	422083	1700	0.1
6	427455	1720	0.28571428571429
6	432759	1740	0.21428571428571
6	438040	1760	0.33333333333333
6	443262	1780	0.33333333333333
6	448531	1800	0.2
6	453367	1820	0.14285714285714
6	457692	1840	0.26666666666667
6	461562	1860	0
6	464925	1880	0.33333333333333
6	467850	1900	0
6	470304	1920	0.5
6	472363	1940	0.33333333333333
6	473882	1960	0.33333333333333
6	474953	1980	0.33333333333333
6	475551	2000	0
7	34650	240	8.85
7	39957	260	8.95
7	45268	280	8.7619047619048
7	50509	300	8.875
7	55806	320	8.8780487804878
7	61067	340	8.85
7	66297	360	8.8461538461538
7	71502	380	9.0769230769231
7	76836	400	8.975
7	82250	420	9.0731707317073
7	87689	440	9.4871794871795
7	92991	460	9.1794871794872
7	98320	480	9.05
7	103563	500	8.8292682926829
7	108848	520	9.1
7	114236	540	8.925
7	119552	560	9.0243902439024
7	124818	580	8.75
7	130279	600	8.8292682926829
7	135585	620	8.975
7	140916	640	9.075
7	146277	660	9.175
7	151701	680	9.025
7	157123	700	8.9756097560976
7	162492	720	8.9756097560976
7	167876	740	9.1
7	173142	760	8.6341463414634
7	178428	780	9.325
7	183814	800	9.025
7	189136	820	8.9024390243902
7	194331	840	8.875
7	199624	860	9.05
7	204951	880	8.925
7	210335	900	8.925
7	215530	920	9.0512820512821
7	220864	940	9.1
7	226142	960	9.075
7	231441	980	9.275
7	236617	1000	8.825
7	241964	1020	9.1
7	247258	1040	9.0789473684211
7	252544	1060	8.7073170731707
7	257807	1080	8.9
7	263120	1100	8.780487804878
7	268317	1120	8.7317073170732
7	273695	1140	8.7560975609756
7	278995	1160	9.1025641025641
7	284316	1180	8.925
7	289499	1200	8.8461538461538
7	294842	1220	8.875
7	300187	1240	9.05
7	305441	1260	8.7
7	310656	1280	8.7179487179487
7	315977	1300	8.9024390243902
7	321267	1320	8.7
7	326531	1340	8.875
7	331775	1360	8.825
7	337104	1380	8.5609756097561
7	342535	1400	8.8780487804878
7	347909	1420	8.675
7	353168	1440	8.775
7	358503	1460	8.8536585365854
7	363879	1480	8.5238095238095
7	369097	1500	8.95
7	374519	1520	8.95
7	379746	1540	9.025
7	385148	1560	8.8048780487805
7	390408	1580	8.825
7	395707	1600	8.775
7	400963	1620	8.875
7	406157	1640	9.075
7	411350	1660	9.025641025641
7	416698	1680	8.7560975609756
7	422083	1700	8.8780487804878
7	427455	1720	8.9512195121951
7	432759	1740	9.0512820512821
7	438040	1760	8.8
7	443262	1780	8.609756097561
7	448531	1800	8.8
7	453367	1820	8.7105263157895
7	457692	1840	8.1428571428571
7	461562	1860	8.258064516129
7	464925	1880	8.1851851851852
7	467850	1900	8.0416666666667
7	470304	1920	8.3809523809524
7	472363	1940	7.9411764705882
7	473882	1960	7.5
7	474953	1980	6.4
7	475551	2000	5.4285714285714
8	34650	240	2.2707730525991
8	39957	260	1.9864928507684
8	45268	280	1.6937406114872
8	50509	300	1.6974717247749
8	55806	320	1.9260727134667
8	61067	340	1.5283643007796
8	66297	360	1.7701986439003
8	71502	380	1.8550729221674
8	76836	400	1.2086759019263
8	82250	420	1.9923634696315
8	87689	440	1.6362954769812
8	92991	460	1.4118258963744
8	98320	480	1.5182648665922
8	103563	500	1.6416826585
8	108848	520	1.8508487311612
8	114236	540	1.2065526224617
8	119552	560	1.4914389843042
8	124818	580	1.5483655567843
8	130279	600	1.7592958680164
8	135585	620	1.993418658666
8	140916	640	2.0303782646187
8	146277	660	1.550640893143
8	151701	680	1.9412855904245
8	157123	700	2.4747505417521
8	162492	720	1.8505108062107
8	167876	740	1.7216569240422
8	173142	760	2.094708781203
8	178428	780	1.2687061852988
8	183814	800	1.7318657495196
8	189136	820	1.7579089573806
8	194331	840	1.4882014614102
8	199624	860	1.8250395148515
8	204951	880	2.0177100500701
8	210335	900	1.7004901254246
8	215530	920	1.5208847485439
8	220864	940	2.0606197723389
8	226142	960	1.4916433890176
8	231441	980	1.4498010473589
8	236617	1000	1.3938969538487
8	241964	1020	1.498717400364
8	247258	1040	1.4774261576164
8	252544	1060	1.8336289488201
8	257807	1080	1.5980757659905
8	263120	1100	1.8236254429289
8	268317	1120	1.5169770967932
8	273695	1140	1.6849404708309
8	278995	1160	1.6025452090654
8	284316	1180	2.1047869738119
8	289499	1200	1.4425573333213
8	294842	1220	1.5222705713203
8	300187	1240	1.5843788720683
8	305441	1260	1.9108328161517
8	310656	1280	1.4317585423586
8	315977	1300	1.8000677494025
8	321267	1320	1.7423826892785
8	326531	1340	1.6974717247749
8	331775	1360	1.7080127904403
8	337104	1380	1.9499843651656
8	342535	1400	2.1701972485378
8	347909	1420	1.8451252476423
8	353168	1440	1.5930538323674
8	358503	1460	1.9945046453914
8	363879	1480	1.8244691207554
8	369097	1500	1.9208705291465
8	374519	1520	1.9473848341578
8	379746	1540	1.5768761719103
8	385148	1560	1.7352163005678
8	390408	1580	2.0986870132269
8	395707	1600	1.5768761719103
8	400963	1620	1.8836339673824
8	406157	1640	1.7155024680684
8	411350	1660	1.4597616872407
8	416698	1680	1.9720609499313
8	422083	1700	1.7915792188907
8	427455	1720	2.1788898493521
8	432759	1740	1.3945140249284
8	438040	1760	1.8285485346552
8	443262	1780	1.6863873929274
8	448531	1800	1.5721942856387
8	453367	1820	1.48702305071
8	457692	1840	1.6652655174769
8	461562	1860	1.5268211407034
8	464925	1880	1.7982264133357
8	467850	1900	1.8991798382383
8	470304	1920	1.9098740920854
8	472363	1940	1.8190171877725
8	473882	1960	1.5566235649883
8	474953	1980	0.84327404271157
8	475551	2000	1.2724180205607
9	34650	240	5.1564102564103
9	39957	260	3.9461538461538
9	45268	280	2.8687572590012
9	50509	300	2.8814102564103
9	55806	320	3.709756097561
9	61067	340	2.3358974358974
9	66297	360	3.1336032388664
9	71502	380	3.4412955465587
9	76836	400	1.4608974358974
9	82250	420	3.969512195122
9	87689	440	2.6774628879892
9	92991	460	1.9932523616734
9	98320	480	2.3051282051282
9	103563	500	2.6951219512195
9	108848	520	3.425641025641
9	114236	540	1.4557692307692
9	119552	560	2.2243902439024
9	124818	580	2.3974358974359
9	130279	600	3.0951219512195
9	135585	620	3.9737179487179
9	140916	640	4.1224358974359
9	146277	660	2.4044871794872
9	151701	680	3.7685897435897
9	157123	700	6.1243902439024
9	162492	720	3.4243902439024
9	167876	740	2.9641025641026
9	173142	760	4.3878048780488
9	178428	780	1.6096153846154
9	183814	800	2.999358974359
9	189136	820	3.090243902439
9	194331	840	2.2147435897436
9	199624	860	3.3307692307692
9	204951	880	4.0711538461538
9	210335	900	2.8916666666667
9	215530	920	2.3130904183536
9	220864	940	4.2461538461538
9	226142	960	2.225
9	231441	980	2.1019230769231
9	236617	1000	1.9429487179487
9	241964	1020	2.2461538461538
9	247258	1040	2.1827880512091
9	252544	1060	3.3621951219512
9	257807	1080	2.5538461538462
9	263120	1100	3.3256097560976
9	268317	1120	2.3012195121951
9	273695	1140	2.8390243902439
9	278995	1160	2.5681511470985
9	284316	1180	4.4301282051282
9	289499	1200	2.080971659919
9	294842	1220	2.3173076923077
9	300187	1240	2.5102564102564
9	305441	1260	3.6512820512821
9	310656	1280	2.0499325236167
9	315977	1300	3.240243902439
9	321267	1320	3.0358974358974
9	326531	1340	2.8814102564103
9	331775	1360	2.9173076923077
9	337104	1380	3.8024390243902
9	342535	1400	4.709756097561
9	347909	1420	3.4044871794872
9	353168	1440	2.5378205128205
9	358503	1460	3.9780487804878
9	363879	1480	3.32868757259
9	369097	1500	3.6897435897436
9	374519	1520	3.7923076923077
9	379746	1540	2.4865384615385
9	385148	1560	3.0109756097561
9	390408	1580	4.4044871794872
9	395707	1600	2.4865384615385
9	400963	1620	3.5480769230769
9	406157	1640	2.9429487179487
9	411350	1660	2.1309041835358
9	416698	1680	3.8890243902439
9	422083	1700	3.209756097561
9	427455	1720	4.7475609756098
9	432759	1740	1.944669365722
9	438040	1760	3.3435897435897
9	443262	1780	2.8439024390244
9	448531	1800	2.4717948717949
9	453367	1820	2.2112375533428
9	457692	1840	2.7731092436975
9	461562	1860	2.3311827956989
9	464925	1880	3.2336182336182
9	467850	1900	3.606884057971
9	470304	1920	3.647619047619
9	472363	1940	3.3088235294118
9	473882	1960	2.4230769230769
9	474953	1980	0.71111111111111
9	475551	2000	1.6190476190476
10	34650	240	567.33838581316
10	39957	260	373.61801752656
10	45268	280	187.25011668395
10	50509	300	330.4574294662
10	55806	320	234.33371173401
10	61067	340	138.79410455448
10	66297	360	233.18930205033
10	71502	380	280.56460238986
10	76836	400	375.343857092
10	82250	420	90.098675632242
10	87689	440	283.31094289226
10	92991	460	325.92474525263
10	98320	480	187.10211510399
10	103563	500	234.76812242733
10	108848	520	183.15525358526
10	114236	540	230.1274956705
10	119552	560	137.49787848394
10	124818	580	230.51019121897
10	130279	600	228.907412484
10	135585	620	330.82511891822
10	140916	640	424.4579970519
10	146277	660	283.00250081713
10	151701	680	378.0147363049
10	157123	700	281.74310892921
10	162492	720	383.34565310393
10	167876	740	379.09667197681
10	173142	760	232.82282914598
10	178428	780	422.43525940042
10	183814	800	323.69996310326
10	189136	820	185.90539103778
10	194331	840	232.63344361086
10	199624	860	140.69229706808
10	204951	880	187.52133046869
10	210335	900	429.95575010952
10	215530	920	234.7919496395
10	220864	940	238.82144081978
10	226142	960	239.83503005518
10	231441	980	383.87307781248
10	236617	1000	291.69586110221
10	241964	1020	341.78864013272
10	247258	1040	385.69141773763
10	252544	1060	339.11780451748
10	257807	1080	333.70918871763
10	263120	1100	479.40526023517
10	268317	1120	570.22193986511
10	273695	1140	148.60590529545
10	278995	1160	243.28128546956
10	284316	1180	287.11650896106
10	289499	1200	95.995085405971
10	294842	1220	327.61320432113
10	300187	1240	279.27059836563
10	305441	1260	231.49938980807
10	310656	1280	319.24843210266
10	315977	1300	322.01835978467
10	321267	1320	280.86118390761
10	326531	1340	235.37922744269
10	331775	1360	232.55616184478
10	337104	1380	331.67678958133
10	342535	1400	367.43712489826
10	347909	1420	414.51291928053
10	353168	1440	380.85787290923
10	358503	1460	275.82103608542
10	363879	1480	181.5755367866
10	369097	1500	326.12731319342
10	374519	1520	287.2851923288
10	379746	1540	326.10213758427
10	385148	1560	325.69905681991
10	390408	1580	323.71585732045
10	395707	1600	324.40379904857
10	400963	1620	184.31464502367
10	406157	1640	184.02365244775
10	411350	1660	556.56002364634
10	416698	1680	329.45406424363
10	422083	1700	461.68782178879
10	427455	1720	377.88179095866
10	432759	1740	383.93543148633
10	438040	1760	182.79129825369
10	443262	1780	146.96909540349
10	448531	1800	228.80778193998
10	453367	1820	332.10468845381
10	457692	1840	281.48302143084
10	461562	1860	343.6164992251
10	464925	1880	144.3318935176
10	467850	1900	191.03163493486
10	470304	1920	96.943645880159
10	472363	1940	191.6952876944
10	473882	1960	139.56448858243
10	474953	1980	144.75743669277
10	475551	2000	92.964341712406
11	34650	240	47.278198817763
11	39957	260	46.70225219082
11	45268	280	46.812529170987
11	50509	300	47.208204209457
11	55806	320	46.866742346803
11	61067	340	46.264701518161
11	66297	360	46.637860410066
11	71502	380	46.760767064977
11	76836	400	46.9179821365
11	82250	420	45.049337816121
11	87689	440	47.218490482043
11	92991	460	46.560677893232
11	98320	480	46.775528775998
11	103563	500	46.953624485466
11	108848	520	45.788813396315
11	114236	540	46.0254991341
11	119552	560	45.832626161314
11	124818	580	46.102038243793
11	130279	600	45.781482496801
11	135585	620	47.260731274032
11	140916	640	47.161999672433
11	146277	660	47.167083469522
11	151701	680	47.251842038113
11	157123	700	46.957184821535
11	162492	720	47.918206637992
11	167876	740	47.387083997101
11	173142	760	46.564565829196
11	178428	780	46.937251044491
11	183814	800	46.242851871894
11	189136	820	46.476347759446
11	194331	840	46.526688722172
11	199624	860	46.897432356027
11	204951	880	46.880332617172
11	210335	900	47.77286112328
11	215530	920	46.958389927899
11	220864	940	47.764288163955
11	226142	960	47.967006011035
11	231441	980	47.98413472656
11	236617	1000	48.615976850368
11	241964	1020	48.826948590389
11	247258	1040	48.211427217203
11	252544	1060	48.445400645354
11	257807	1080	47.672741245375
11	263120	1100	47.940526023517
11	268317	1120	47.518494988759
11	273695	1140	49.535301765149
11	278995	1160	48.656257093912
11	284316	1180	47.85275149351
11	289499	1200	47.997542702986
11	294842	1220	46.80188633159
11	300187	1240	46.545099727604
11	305441	1260	46.299877961613
11	310656	1280	45.606918871809
11	315977	1300	46.002622826381
11	321267	1320	46.810197317935
11	326531	1340	47.075845488539
11	331775	1360	46.511232368956
11	337104	1380	47.382398511618
11	342535	1400	45.929640612283
11	347909	1420	46.05699103117
11	353168	1440	47.607234113654
11	358503	1460	45.970172680904
11	363879	1480	45.39388419665
11	369097	1500	46.589616170489
11	374519	1520	47.880865388134
11	379746	1540	46.586019654896
11	385148	1560	46.528436688559
11	390408	1580	46.24512247435
11	395707	1600	46.343399864081
11	400963	1620	46.078661255918
11	406157	1640	46.005913111937
11	411350	1660	46.380001970528
11	416698	1680	47.064866320518
11	422083	1700	46.168782178879
11	427455	1720	47.235223869832
11	432759	1740	47.991928935791
11	438040	1760	45.697824563422
11	443262	1780	48.989698467831
11	448531	1800	45.761556387995
11	453367	1820	47.443526921972
11	457692	1840	46.91383690514
11	461562	1860	49.088071317872
11	464925	1880	48.110631172533
11	467850	1900	47.757908733715
11	470304	1920	48.47182294008
11	472363	1940	47.923821923599
11	473882	1960	46.521496194143
11	474953	1980	48.252478897589
11	475551	2000	46.482170856203
12	34650	240	1.6061992086405
12	39957	260	0.99044094631085
12	45268	280	0.60136085610828
12	50509	300	0.9285964749857
12	55806	320	1.6567804209361
12	61067	340	1.0966719362092
12	66297	360	1.4303465493147
12	71502	380	1.8320768182996
12	76836	400	1.3090317081535
12	82250	420	0.11381178856915
12	87689	440	1.7807477953745
12	92991	460	3.6961051583143
12	98320	480	1.9335894477923
12	103563	500	1.2128098056175
12	108848	520	1.1749007312323
12	114236	540	1.2909124654877
12	119552	560	1.2277875937796
12	124818	580	1.6308157933908
12	130279	600	1.2733989285747
12	135585	620	1.00167488635
12	140916	640	1.4486368023642
12	146277	660	1.6410867991184
12	151701	680	1.2604937609462
12	157123	700	1.148013593638
12	162492	720	1.4195864576765
12	167876	740	1.5859607746511
12	173142	760	0.52746108419314
12	178428	780	1.2802931640874
12	183814	800	0.91217546055435
12	189136	820	0.50338492460738
12	194331	840	1.0617338185836
12	199624	860	1.3864802949978
12	204951	880	0.77299348611888
12	210335	900	3.9026741061265
12	215530	920	0.99569034952957
12	220864	940	0.26078684977669
12	226142	960	3.311787354885
12	231441	980	3.1360064346155
12	236617	1000	4.2743546424832
12	241964	1020	3.7513678499547
12	247258	1040	2.4771595551444
12	252544	1060	3.2683915176381
12	257807	1080	1.8885371498125
12	263120	1100	2.3867886845179
12	268317	1120	1.8048367948742
12	273695	1140	2.2227414426361
12	278995	1160	3.996530075804
12	284316	1180	1.3937673910892
12	289499	1200	1.8024959016214
12	294842	1220	1.5393061796596
12	300187	1240	0.5295928225882
12	305441	1260	1.6535109748162
12	310656	1280	2.4622969841823
12	315977	1300	0.66482153819772
12	321267	1320	1.3582194601509
12	326531	1340	0.73575850132703
12	331775	1360	0.98060069055024
12	337104	1380	2.4761876202752
12	342535	1400	1.1561266526155
12	347909	1420	0.99473240656616
12	353168	1440	3.7163005240485
12	358503	1460	0.79440927109398
12	363879	1480	0.38140970177006
12	369097	1500	2.6396972544413
12	374519	1520	2.2627564879044
12	379746	1540	1.0845629833113
12	385148	1560	2.169020094691
12	390408	1580	0.93020974153746
12	395707	1600	1.1894371368753
12	400963	1620	1.1422558395754
12	406157	1640	2.1240686687905
12	411350	1660	1.5956748635471
12	416698	1680	1.7589276893473
12	422083	1700	1.9250951018733
12	427455	1720	1.8648585529867
12	432759	1740	2.325529262297
12	438040	1760	1.0704252774174
12	443262	1780	3.1730765430065
12	448531	1800	1.1869708714872
12	453367	1820	1.8868701351855
12	457692	1840	2.5176803452603
12	461562	1860	2.0900282509483
12	464925	1880	3.1138047314114
12	467850	1900	1.9691915448896
12	470304	1920	3.3059011335495
12	472363	1940	2.0493062859519
12	473882	1960	0.311617778296
12	474953	1980	1.8646381867503
12	475551	2000	1.7559443667753
13	34650	240	2.5798758978373
13	39957	260	0.98097326812913
13	45268	280	0.36163487925928
13	50509	300	0.86229141335586