version 2
run statisticRVV-118-20150325-05:24:16-1376
attr c 6
attr configname statisticRVV
attr datetime 20150325-05:24:16
attr experiment statisticRVV
attr inifile omnetpp.ini
attr iterationvars "$sc=\"erlangen-low.launchd.xml\", $p=1/5, $c=6"
attr iterationvars2 "$sc=\"erlangen-low.launchd.xml\", $p=1/5, $c=6, $repetition=8"
attr measurement "$sc=\"erlangen-low.launchd.xml\", $p=1/5, $c=6"
attr network RSUExampleScenario
attr p 1/5
attr processid 1376
attr repetition 8
attr replication #8
attr resultdir results
attr runnumber 118
attr sc "\"erlangen-low.launchd.xml\""
attr seedset 118

vector 0  RSUExampleScenario.rsu[0].appl  Number_CH  ETV
vector 1  RSUExampleScenario.rsu[0].appl  Number_ON  ETV
vector 2  RSUExampleScenario.rsu[0].appl  Number_FN  ETV
vector 3  RSUExampleScenario.rsu[0].appl  Number_CH_Losts  ETV
vector 4  RSUExampleScenario.rsu[0].appl  Mean_Cluster_Size  ETV
vector 5  RSUExampleScenario.rsu[0].appl  StdDev_Cluster_Size  ETV
vector 6  RSUExampleScenario.rsu[0].appl  Variance_Cluster_Size  ETV
vector 7  RSUExampleScenario.rsu[0].appl  Mean_Neighbors  ETV
vector 8  RSUExampleScenario.rsu[0].appl  StdDev_Neighbors  ETV
vector 9  RSUExampleScenario.rsu[0].appl  Variance_Neighbors  ETV
vector 10  RSUExampleScenario.rsu[0].appl  Total_CH_Utility  ETV
vector 11  RSUExampleScenario.rsu[0].appl  Mean_CH_Utility  ETV
vector 12  RSUExampleScenario.rsu[0].appl  StdDev_CH_Utility  ETV
vector 13  RSUExampleScenario.rsu[0].appl  Variance_CH_Utility  ETV
vector 14  RSUExampleScenario.rsu[0].appl  Total_exp_CH_Utility  ETV
vector 15  RSUExampleScenario.rsu[0].appl  Mean_exp_CH_Utility  ETV
vector 16  RSUExampleScenario.rsu[0].appl  StdDev_exp_CH_Utility  ETV
vector 17  RSUExampleScenario.rsu[0].appl  Variance_exp_CH_Utility  ETV
vector 18  RSUExampleScenario.rsu[0].appl  Total_ON_Utility  ETV
vector 19  RSUExampleScenario.rsu[0].appl  Mean_ON_Utility  ETV
vector 20  RSUExampleScenario.rsu[0].appl  StdDev_ON_Utility  ETV
vector 21  RSUExampleScenario.rsu[0].appl  Variance_ON_Utility  ETV
vector 22  RSUExampleScenario.rsu[0].appl  Total_exp_ON_Utility  ETV
vector 23  RSUExampleScenario.rsu[0].appl  Mean_exp_ON_Utility  ETV
vector 24  RSUExampleScenario.rsu[0].appl  StdDev_exp_ON_Utility  ETV
vector 25  RSUExampleScenario.rsu[0].appl  Variance_exp_ON_Utility  ETV
0	34460	240	6
0	39851	260	3
0	45153	280	6
0	50334	300	5
0	55772	320	6
0	61108	340	6
0	66504	360	6
0	71767	380	6
0	77116	400	6
0	82415	420	7
0	87813	440	5
0	93156	460	7
0	98467	480	7
0	103718	500	6
0	109054	520	5
0	114371	540	10
0	119716	560	5
0	125052	580	8
0	130408	600	11
0	135692	620	8
0	141046	640	4
0	146382	660	7
0	151726	680	8
0	157004	700	7
0	162331	720	8
0	167587	740	6
0	172877	760	4
0	178210	780	3
0	183454	800	4
0	188853	820	4
0	194267	840	8
0	199598	860	8
0	204771	880	8
0	209991	900	6
0	215315	920	6
0	220694	940	5
0	226077	960	8
0	231450	980	6
0	236799	1000	5
0	242033	1020	7
0	247372	1040	7
0	252627	1060	8
0	257990	1080	7
0	263394	1100	9
0	268810	1120	7
0	274167	1140	5
0	279440	1160	8
0	284731	1180	4
0	290041	1200	8
0	295341	1220	7
0	300656	1240	7
0	305927	1260	11
0	311252	1280	9
0	316557	1300	5
0	321890	1320	9
0	327163	1340	5
0	332417	1360	5
0	337831	1380	7
0	343032	1400	10
0	348365	1420	4
0	353631	1440	5
0	359118	1460	8
0	364340	1480	3
0	369592	1500	8
0	374935	1520	8
0	380310	1540	8
0	385572	1560	5
0	390899	1580	5
0	396163	1600	7
0	401358	1620	5
0	406610	1640	8
0	411970	1660	6
0	417307	1680	5
0	422560	1700	3
0	427975	1720	4
0	433312	1740	10
0	438752	1760	5
0	444074	1780	7
0	449448	1800	4
0	454345	1820	10
0	458694	1840	6
0	462473	1860	6
0	465836	1880	4
0	468751	1900	7
0	471266	1920	2
0	473264	1940	3
0	474810	1960	1
0	475865	1980	3
0	476474	2000	1
1	34460	240	8
1	39851	260	3
1	45153	280	9
1	50334	300	7
1	55772	320	9
1	61108	340	7
1	66504	360	10
1	71767	380	9
1	77116	400	7
1	82415	420	7
1	87813	440	6
1	93156	460	8
1	98467	480	11
1	103718	500	10
1	109054	520	6
1	114371	540	12
1	119716	560	8
1	125052	580	13
1	130408	600	14
1	135692	620	10
1	141046	640	5
1	146382	660	8
1	151726	680	10
1	157004	700	9
1	162331	720	11
1	167587	740	9
1	172877	760	7
1	178210	780	5
1	183454	800	5
1	188853	820	5
1	194267	840	9
1	199598	860	11
1	204771	880	10
1	209991	900	9
1	215315	920	8
1	220694	940	6
1	226077	960	10
1	231450	980	9
1	236799	1000	7
1	242033	1020	10
1	247372	1040	12
1	252627	1060	12
1	257990	1080	10
1	263394	1100	11
1	268810	1120	8
1	274167	1140	7
1	279440	1160	11
1	284731	1180	4
1	290041	1200	11
1	295341	1220	11
1	300656	1240	9
1	305927	1260	13
1	311252	1280	13
1	316557	1300	5
1	321890	1320	10
1	327163	1340	7
1	332417	1360	6
1	337831	1380	10
1	343032	1400	12
1	348365	1420	5
1	353631	1440	7
1	359118	1460	12
1	364340	1480	4
1	369592	1500	9
1	374935	1520	12
1	380310	1540	11
1	385572	1560	7
1	390899	1580	7
1	396163	1600	9
1	401358	1620	5
1	406610	1640	10
1	411970	1660	6
1	417307	1680	7
1	422560	1700	4
1	427975	1720	6
1	433312	1740	13
1	438752	1760	7
1	444074	1780	10
1	449448	1800	6
1	454345	1820	15
1	458694	1840	7
1	462473	1860	9
1	465836	1880	4
1	468751	1900	9
1	471266	1920	5
1	473264	1940	5
1	474810	1960	2
1	475865	1980	5
1	476474	2000	2
2	34460	240	26
2	39851	260	35
2	45153	280	25
2	50334	300	27
2	55772	320	27
2	61108	340	27
2	66504	360	25
2	71767	380	25
2	77116	400	27
2	82415	420	26
2	87813	440	31
2	93156	460	25
2	98467	480	23
2	103718	500	24
2	109054	520	29
2	114371	540	18
2	119716	560	27
2	125052	580	18
2	130408	600	15
2	135692	620	23
2	141046	640	32
2	146382	660	24
2	151726	680	23
2	157004	700	23
2	162331	720	21
2	167587	740	25
2	172877	760	29
2	178210	780	33
2	183454	800	31
2	188853	820	32
2	194267	840	24
2	199598	860	22
2	204771	880	22
2	209991	900	25
2	215315	920	27
2	220694	940	30
2	226077	960	23
2	231450	980	25
2	236799	1000	28
2	242033	1020	24
2	247372	1040	21
2	252627	1060	20
2	257990	1080	23
2	263394	1100	21
2	268810	1120	25
2	274167	1140	28
2	279440	1160	23
2	284731	1180	32
2	290041	1200	22
2	295341	1220	22
2	300656	1240	25
2	305927	1260	17
2	311252	1280	18
2	316557	1300	31
2	321890	1320	22
2	327163	1340	28
2	332417	1360	29
2	337831	1380	24
2	343032	1400	18
2	348365	1420	31
2	353631	1440	28
2	359118	1460	21
2	364340	1480	33
2	369592	1500	24
2	374935	1520	20
2	380310	1540	21
2	385572	1560	28
2	390899	1580	28
2	396163	1600	23
2	401358	1620	29
2	406610	1640	22
2	411970	1660	28
2	417307	1680	28
2	422560	1700	34
2	427975	1720	31
2	433312	1740	18
2	438752	1760	28
2	444074	1780	23
2	449448	1800	30
2	454345	1820	13
2	458694	1840	22
2	462473	1860	16
2	465836	1880	20
2	468751	1900	8
2	471266	1920	13
2	473264	1940	10
2	474810	1960	11
2	475865	1980	3
2	476474	2000	5
3	34460	240	3
3	39851	260	2
3	45153	280	2
3	50334	300	2
3	55772	320	3
3	61108	340	4
3	66504	360	4
3	71767	380	2
3	77116	400	3
3	82415	420	3
3	87813	440	1
3	93156	460	1
3	98467	480	2
3	103718	500	3
3	109054	520	0
3	114371	540	1
3	119716	560	0
3	125052	580	3
3	130408	600	1
3	135692	620	4
3	141046	640	2
3	146382	660	2
3	151726	680	4
3	157004	700	1
3	162331	720	2
3	167587	740	2
3	172877	760	0
3	178210	780	1
3	183454	800	2
3	188853	820	0
3	194267	840	4
3	199598	860	2
3	204771	880	1
3	209991	900	1
3	215315	920	3
3	220694	940	1
3	226077	960	3
3	231450	980	1
3	236799	1000	1
3	242033	1020	2
3	247372	1040	0
3	252627	1060	3
3	257990	1080	4
3	263394	1100	2
3	268810	1120	2
3	274167	1140	1
3	279440	1160	4
3	284731	1180	3
3	290041	1200	0
3	295341	1220	3
3	300656	1240	6
3	305927	1260	3
3	311252	1280	4
3	316557	1300	5
3	321890	1320	2
3	327163	1340	2
3	332417	1360	2
3	337831	1380	2
3	343032	1400	2
3	348365	1420	0
3	353631	1440	1
3	359118	1460	4
3	364340	1480	2
3	369592	1500	4
3	374935	1520	4
3	380310	1540	2
3	385572	1560	3
3	390899	1580	0
3	396163	1600	1
3	401358	1620	2
3	406610	1640	2
3	411970	1660	2
3	417307	1680	5
3	422560	1700	0
3	427975	1720	2
3	433312	1740	2
3	438752	1760	2
3	444074	1780	1
3	449448	1800	2
3	454345	1820	4
3	458694	1840	1
3	462473	1860	4
3	465836	1880	2
3	468751	1900	1
3	471266	1920	0
3	473264	1940	1
3	474810	1960	0
3	475865	1980	0
3	476474	2000	0
4	34460	240	1.3333333333333
4	39851	260	1
4	45153	280	1.5
4	50334	300	1.4
4	55772	320	1.5
4	61108	340	1.1666666666667
4	66504	360	1.6666666666667
4	71767	380	1.5
4	77116	400	1.1666666666667
4	82415	420	1
4	87813	440	1.2
4	93156	460	1.1428571428571
4	98467	480	1.5714285714286
4	103718	500	1.6666666666667
4	109054	520	1.2
4	114371	540	1.2
4	119716	560	1.6
4	125052	580	1.625
4	130408	600	1.2727272727273
4	135692	620	1.25
4	141046	640	1.25
4	146382	660	1.1428571428571
4	151726	680	1.25
4	157004	700	1.2857142857143
4	162331	720	1.375
4	167587	740	1.5
4	172877	760	1.75
4	178210	780	1.6666666666667
4	183454	800	1.25
4	188853	820	1.25
4	194267	840	1.125
4	199598	860	1.375
4	204771	880	1.25
4	209991	900	1.5
4	215315	920	1.3333333333333
4	220694	940	1.2
4	226077	960	1.25
4	231450	980	1.5
4	236799	1000	1.4
4	242033	1020	1.4285714285714
4	247372	1040	1.7142857142857
4	252627	1060	1.5
4	257990	1080	1.4285714285714
4	263394	1100	1.2222222222222
4	268810	1120	1.1428571428571
4	274167	1140	1.4
4	279440	1160	1.375
4	284731	1180	1
4	290041	1200	1.375
4	295341	1220	1.5714285714286
4	300656	1240	1.2857142857143
4	305927	1260	1.1818181818182
4	311252	1280	1.4444444444444
4	316557	1300	1
4	321890	1320	1.1111111111111
4	327163	1340	1.4
4	332417	1360	1.2
4	337831	1380	1.4285714285714
4	343032	1400	1.2
4	348365	1420	1.25
4	353631	1440	1.4
4	359118	1460	1.5
4	364340	1480	1.3333333333333
4	369592	1500	1.125
4	374935	1520	1.5
4	380310	1540	1.375
4	385572	1560	1.4
4	390899	1580	1.4
4	396163	1600	1.2857142857143
4	401358	1620	1
4	406610	1640	1.25
4	411970	1660	1
4	417307	1680	1.4
4	422560	1700	1.3333333333333
4	427975	1720	1.5
4	433312	1740	1.3
4	438752	1760	1.4
4	444074	1780	1.4285714285714
4	449448	1800	1.5
4	454345	1820	1.5
4	458694	1840	1.1666666666667
4	462473	1860	1.5
4	465836	1880	1
4	468751	1900	1.2857142857143
4	471266	1920	2.5
4	473264	1940	1.6666666666667
4	474810	1960	2
4	475865	1980	1.6666666666667
4	476474	2000	2
5	34460	240	0.51639777949432
5	39851	260	0
5	45153	280	0.54772255750517
5	50334	300	0.54772255750517
5	55772	320	0.54772255750517
5	61108	340	0.40824829046386
5	66504	360	0.51639777949432
5	71767	380	0.54772255750517
5	77116	400	0.40824829046386
5	82415	420	0
5	87813	440	0.44721359549996
5	93156	460	0.37796447300923
5	98467	480	0.78679579246944
5	103718	500	0.81649658092773
5	109054	520	0.44721359549996
5	114371	540	0.42163702135578
5	119716	560	0.89442719099992
5	125052	580	0.9161253813129
5	130408	600	0.46709936649691
5	135692	620	0.46291004988628
5	141046	640	0.5
5	146382	660	0.37796447300923
5	151726	680	0.46291004988628
5	157004	700	0.48795003647427
5	162331	720	0.51754916950677
5	167587	740	0.54772255750517
5	172877	760	0.5
5	178210	780	0.57735026918963
5	183454	800	0.5
5	188853	820	0.5
5	194267	840	0.35355339059327
5	199598	860	0.51754916950677
5	204771	880	0.46291004988628
5	209991	900	0.54772255750517
5	215315	920	0.51639777949432
5	220694	940	0.44721359549996
5	226077	960	0.46291004988628
5	231450	980	0.54772255750517
5	236799	1000	0.54772255750517
5	242033	1020	0.53452248382485
5	247372	1040	0.48795003647427
5	252627	1060	0.53452248382485
5	257990	1080	0.53452248382485
5	263394	1100	0.4409585518441
5	268810	1120	0.37796447300923
5	274167	1140	0.54772255750517
5	279440	1160	0.51754916950677
5	284731	1180	0
5	290041	1200	0.51754916950677
5	295341	1220	0.53452248382485
5	300656	1240	0.48795003647427
5	305927	1260	0.40451991747795
5	311252	1280	0.52704627669473
5	316557	1300	0
5	321890	1320	0.33333333333333
5	327163	1340	0.54772255750517
5	332417	1360	0.44721359549996
5	337831	1380	0.53452248382485
5	343032	1400	0.42163702135578
5	348365	1420	0.5
5	353631	1440	0.54772255750517
5	359118	1460	0.53452248382485
5	364340	1480	0.57735026918963
5	369592	1500	0.35355339059327
5	374935	1520	0.53452248382485
5	380310	1540	0.51754916950677
5	385572	1560	0.54772255750517
5	390899	1580	0.54772255750517
5	396163	1600	0.48795003647427
5	401358	1620	0
5	406610	1640	0.46291004988628
5	411970	1660	0
5	417307	1680	0.54772255750517
5	422560	1700	0.57735026918963
5	427975	1720	0.57735026918963
5	433312	1740	0.48304589153965
5	438752	1760	0.54772255750517
5	444074	1780	0.53452248382485
5	449448	1800	0.57735026918963
5	454345	1820	0.52704627669473
5	458694	1840	0.40824829046386
5	462473	1860	0.54772255750517
5	465836	1880	0
5	468751	1900	0.48795003647427
5	471266	1920	0.70710678118655
5	473264	1940	0.57735026918963
5	474810	1960	nan
5	475865	1980	0.57735026918963
5	476474	2000	nan
6	34460	240	0.26666666666667
6	39851	260	0
6	45153	280	0.3
6	50334	300	0.3
6	55772	320	0.3
6	61108	340	0.16666666666667
6	66504	360	0.26666666666667
6	71767	380	0.3
6	77116	400	0.16666666666667
6	82415	420	0
6	87813	440	0.2
6	93156	460	0.14285714285714
6	98467	480	0.61904761904762
6	103718	500	0.66666666666667
6	109054	520	0.2
6	114371	540	0.17777777777778
6	119716	560	0.8
6	125052	580	0.83928571428571
6	130408	600	0.21818181818182
6	135692	620	0.21428571428571
6	141046	640	0.25
6	146382	660	0.14285714285714
6	151726	680	0.21428571428571
6	157004	700	0.23809523809524
6	162331	720	0.26785714285714
6	167587	740	0.3
6	172877	760	0.25
6	178210	780	0.33333333333333
6	183454	800	0.25
6	188853	820	0.25
6	194267	840	0.125
6	199598	860	0.26785714285714
6	204771	880	0.21428571428571
6	209991	900	0.3
6	215315	920	0.26666666666667
6	220694	940	0.2
6	226077	960	0.21428571428571
6	231450	980	0.3
6	236799	1000	0.3
6	242033	1020	0.28571428571429
6	247372	1040	0.23809523809524
6	252627	1060	0.28571428571429
6	257990	1080	0.28571428571429
6	263394	1100	0.19444444444444
6	268810	1120	0.14285714285714
6	274167	1140	0.3
6	279440	1160	0.26785714285714
6	284731	1180	0
6	290041	1200	0.26785714285714
6	295341	1220	0.28571428571429
6	300656	1240	0.23809523809524
6	305927	1260	0.16363636363636
6	311252	1280	0.27777777777778
6	316557	1300	0
6	321890	1320	0.11111111111111
6	327163	1340	0.3
6	332417	1360	0.2
6	337831	1380	0.28571428571429
6	343032	1400	0.17777777777778
6	348365	1420	0.25
6	353631	1440	0.3
6	359118	1460	0.28571428571429
6	364340	1480	0.33333333333333
6	369592	1500	0.125
6	374935	1520	0.28571428571429
6	380310	1540	0.26785714285714
6	385572	1560	0.3
6	390899	1580	0.3
6	396163	1600	0.23809523809524
6	401358	1620	0
6	406610	1640	0.21428571428571
6	411970	1660	0
6	417307	1680	0.3
6	422560	1700	0.33333333333333
6	427975	1720	0.33333333333333
6	433312	1740	0.23333333333333
6	438752	1760	0.3
6	444074	1780	0.28571428571429
6	449448	1800	0.33333333333333
6	454345	1820	0.27777777777778
6	458694	1840	0.16666666666667
6	462473	1860	0.3
6	465836	1880	0
6	468751	1900	0.23809523809524
6	471266	1920	0.5
6	473264	1940	0.33333333333333
6	474810	1960	nan
6	475865	1980	0.33333333333333
6	476474	2000	nan
7	34460	240	8.975
7	39851	260	9.0487804878049
7	45153	280	8.75
7	50334	300	9.1282051282051
7	55772	320	8.7380952380952
7	61108	340	9.1
7	66504	360	8.9268292682927
7	71767	380	8.875
7	77116	400	8.85
7	82415	420	9.05
7	87813	440	8.9047619047619
7	93156	460	8.925
7	98467	480	8.780487804878
7	103718	500	8.75
7	109054	520	9.175
7	114371	540	8.875
7	119716	560	9.05
7	125052	580	9.1025641025641
7	130408	600	8.95
7	135692	620	8.7073170731707
7	141046	640	8.9024390243902
7	146382	660	9.1794871794872
7	151726	680	9.1463414634146
7	157004	700	8.9487179487179
7	162331	720	8.975
7	167587	740	8.875
7	172877	760	9.275
7	178210	780	8.95
7	183454	800	8.8
7	188853	820	9.075
7	194267	840	9.225
7	199598	860	9.0243902439024
7	204771	880	8.975
7	209991	900	9.0512820512821
7	215315	920	8.875
7	220694	940	9
7	226077	960	8.9756097560976
7	231450	980	9.05
7	236799	1000	9.05
7	242033	1020	8.8780487804878
7	247372	1040	8.875
7	252627	1060	9.05
7	257990	1080	8.975
7	263394	1100	9
7	268810	1120	9.025
7	274167	1140	8.9
7	279440	1160	8.6666666666667
7	284731	1180	8.875
7	290041	1200	8.725
7	295341	1220	9.025
7	300656	1240	8.6585365853659
7	305927	1260	9.05
7	311252	1280	8.975
7	316557	1300	8.780487804878
7	321890	1320	8.8536585365854
7	327163	1340	8.975
7	332417	1360	9.025
7	337831	1380	9.25
7	343032	1400	9.075
7	348365	1420	9
7	353631	1440	8.95
7	359118	1460	8.9024390243902
7	364340	1480	8.925
7	369592	1500	8.8536585365854
7	374935	1520	8.8
7	380310	1540	9.175
7	385572	1560	8.925
7	390899	1580	8.75
7	396163	1600	9.0769230769231
7	401358	1620	8.7692307692308
7	406610	1640	8.9
7	411970	1660	9
7	417307	1680	9.125
7	422560	1700	8.9512195121951
7	427975	1720	8.780487804878
7	433312	1740	9.1219512195122
7	438752	1760	9.1
7	444074	1780	8.825
7	449448	1800	9.025
7	454345	1820	8.8684210526316
7	458694	1840	8.5428571428571
7	462473	1860	8.3548387096774
7	465836	1880	8.25
7	468751	1900	8.375
7	471266	1920	8.15
7	473264	1940	7.7222222222222
7	474810	1960	7.0714285714286
7	475865	1980	6.6363636363636
7	476474	2000	5.125
8	34460	240	2.0937942494367
8	39851	260	1.7457264893476
8	45153	280	1.7650452162437
8	50334	300	1.5075160325496
8	55772	320	2.2092877542213
8	61108	340	1.691608247065
8	66504	360	1.7662140853028
8	71767	380	1.869971890643
8	77116	400	1.4944341180973
8	82415	420	1.893985081034
8	87813	440	2.1731120071424
8	93156	460	1.5087352489029
8	98467	480	2.2306074858875
8	103718	500	1.7059473644449
8	109054	520	1.4302142568555
8	114371	540	1.4176090379986
8	119716	560	1.6164221332376
8	125052	580	1.7440858228954
8	130408	600	1.7967206594808
8	135692	620	1.9396378842328
8	141046	640	1.8947938944484
8	146382	660	1.2746887106434
8	151726	680	1.5582197471755
8	157004	700	1.7005992434359
8	162331	720	1.954449230569
8	167587	740	1.8423438249227
8	172877	760	2.0379413946935
8	178210	780	1.7238894604338
8	183454	800	1.4884168150705
8	188853	820	2.0049617938684
8	194267	840	1.8043750249794
8	199598	860	1.8369513450014
8	204771	880	1.8185299783208
8	209991	900	1.2762757899599
8	215315	920	1.4708710135364
8	220694	940	1.6124515496597
8	226077	960	1.7100848645323
8	231450	980	1.7679482531005
8	236799	1000	1.7823925148303
8	242033	1020	1.6154739544669
8	247372	1040	1.8836339673824
8	252627	1060	1.7679482531005
8	257990	1080	1.440930966869
8	263394	1100	2.0371548787463
8	268810	1120	2.4336055344768
8	274167	1140	1.6140409552202
8	279440	1160	2.0797123003032
8	284731	1180	1.9373190568941
8	290041	1200	1.5522935884089
8	295341	1220	1.5440124218977
8	300656	1240	2.4860586889448
8	305927	1260	1.5350603429215
8	311252	1280	1.5104337974272
8	316557	1300	1.9813151581961
8	321890	1320	1.8242940498965
8	327163	1340	1.8877133093935
8	332417	1360	2.1422190747219
8	337831	1380	1.5148834261658
8	343032	1400	1.3279538916926
8	348365	1420	1.1547005383793
8	353631	1440	1.7533850046008
8	359118	1460	2.1541225365422
8	364340	1480	1.4743534002124
8	369592	1500	1.8379468927278
8	374935	1520	1.7423826892785
8	380310	1540	1.985685956527
8	385572	1560	1.685344064393
8	390899	1580	1.7209121016305
8	396163	1600	1.5455303192145
8	401358	1620	1.7838683344961
8	406610	1640	2.0102302457743
8	411970	1660	1.7541160386141
8	417307	1680	1.343312018664
8	422560	1700	1.6116950628484
8	427975	1720	1.9686568406143
8	433312	1740	2.1118134618287
8	438752	1760	1.691608247065
8	444074	1780	2.011346022074
8	449448	1800	2.4124410448489
8	454345	1820	1.2980453627933
8	458694	1840	1.6331646857425
8	462473	1860	1.4035285793735
8	465836	1880	1.430488132176
8	468751	1900	1.9518664423304
8	471266	1920	1.9540780569444
8	473264	1940	1.7423971167384
8	474810	1960	1.4392458342578
8	475865	1980	1.2060453783111
8	476474	2000	1.1259916264596
9	34460	240	4.3839743589744
9	39851	260	3.0475609756098
9	45153	280	3.1153846153846
9	50334	300	2.2726045883941
9	55772	320	4.8809523809524
9	61108	340	2.8615384615385
9	66504	360	3.119512195122
9	71767	380	3.4967948717949
9	77116	400	2.2333333333333
9	82415	420	3.5871794871795
9	87813	440	4.7224157955865
9	93156	460	2.2762820512821
9	98467	480	4.9756097560976
9	103718	500	2.9102564102564
9	109054	520	2.0455128205128
9	114371	540	2.0096153846154
9	119716	560	2.6128205128205
9	125052	580	3.0418353576248
9	130408	600	3.2282051282051
9	135692	620	3.7621951219512
9	141046	640	3.590243902439
9	146382	660	1.6248313090418
9	151726	680	2.4280487804878
9	157004	700	2.8920377867746
9	162331	720	3.8198717948718
9	167587	740	3.3942307692308
9	172877	760	4.1532051282051
9	178210	780	2.9717948717949
9	183454	800	2.2153846153846
9	188853	820	4.0198717948718
9	194267	840	3.2557692307692
9	199598	860	3.3743902439024
9	204771	880	3.3070512820513
9	209991	900	1.6288798920378
9	215315	920	2.1634615384615
9	220694	940	2.6
9	226077	960	2.9243902439024
9	231450	980	3.125641025641
9	236799	1000	3.1769230769231
9	242033	1020	2.609756097561
9	247372	1040	3.5480769230769
9	252627	1060	3.125641025641
9	257990	1080	2.0762820512821
9	263394	1100	4.15
9	268810	1120	5.9224358974359
9	274167	1140	2.6051282051282
9	279440	1160	4.3252032520325
9	284731	1180	3.7532051282051
9	290041	1200	2.4096153846154
9	295341	1220	2.3839743589744
9	300656	1240	6.180487804878
9	305927	1260	2.3564102564103
9	311252	1280	2.2814102564103
9	316557	1300	3.9256097560976
9	321890	1320	3.3280487804878
9	327163	1340	3.5634615384615
9	332417	1360	4.5891025641026
9	337831	1380	2.2948717948718
9	343032	1400	1.7634615384615
9	348365	1420	1.3333333333333
9	353631	1440	3.074358974359
9	359118	1460	4.640243902439
9	364340	1480	2.1737179487179
9	369592	1500	3.3780487804878
9	374935	1520	3.0358974358974
9	380310	1540	3.9429487179487
9	385572	1560	2.8403846153846
9	390899	1580	2.9615384615385
9	396163	1600	2.3886639676113
9	401358	1620	3.1821862348178
9	406610	1640	4.0410256410256
9	411970	1660	3.0769230769231
9	417307	1680	1.8044871794872
9	422560	1700	2.5975609756098
9	427975	1720	3.8756097560976
9	433312	1740	4.459756097561
9	438752	1760	2.8615384615385
9	444074	1780	4.0455128205128
9	449448	1800	5.8198717948718
9	454345	1820	1.6849217638691
9	458694	1840	2.6672268907563
9	462473	1860	1.9698924731183
9	465836	1880	2.0462962962963
9	468751	1900	3.8097826086957
9	471266	1920	3.8184210526316
9	473264	1940	3.0359477124183
9	474810	1960	2.0714285714286
9	475865	1980	1.4545454545455
9	476474	2000	1.2678571428571
10	34460	240	281.77378351177
10	39851	260	138.85273262952
10	45153	280	282.2974860405
10	50334	300	237.79506318697
10	55772	320	282.10956747355
10	61108	340	287.62418959279
10	66504	360	280.59979102186
10	71767	380	285.67200739819
10	77116	400	282.19453863399
10	82415	420	343.88719902693
10	87813	440	228.44533425703
10	93156	460	330.73947800078
10	98467	480	325.97859423102
10	103718	500	275.86538208536
10	109054	520	239.40956618026
10	114371	540	473.47401349709
10	119716	560	236.77617961221
10	125052	580	369.89067543795
10	130408	600	518.5364020139
10	135692	620	372.21824670059
10	141046	640	188.33207913868
10	146382	660	327.7687916975
10	151726	680	383.87859001868
10	157004	700	334.64128137518
10	162331	720	380.39004257659
10	167587	740	277.07034806103
10	172877	760	188.38444771079
10	178210	780	140.23185558744
10	183454	800	185.56142804859
10	188853	820	195.09193920741
10	194267	840	385.76422757963
10	199598	860	372.64768939659
10	204771	880	378.52720642004
10	209991	900	282.36031877343
10	215315	920	279.57561133259
10	220694	940	236.4845888953
10	226077	960	373.31754750554
10	231450	980	286.24314675611
10	236799	1000	232.38379752035
10	242033	1020	327.92152600279
10	247372	1040	328.87008888517
10	252627	1060	372.11331272613
10	257990	1080	325.63544165028
10	263394	1100	416.2388890609
10	268810	1120	323.22765006037
10	274167	1140	232.12058735044
10	279440	1160	377.99237274079
10	284731	1180	181.10260708048
10	290041	1200	372.89754637942
10	295341	1220	336.92009223334
10	300656	1240	322.68489514466
10	305927	1260	512.55863930685
10	311252	1280	428.75439703203
10	316557	1300	228.77866049844
10	321890	1320	425.56376712209
10	327163	1340	233.1706270975
10	332417	1360	230.62493588874
10	337831	1380	321.85122224631
10	343032	1400	469.32448744509
10	348365	1420	184.17489558861
10	353631	1440	231.21088602068
10	359118	1460	370.93251735293
10	364340	1480	139.76065241987
10	369592	1500	376.27651289936
10	374935	1520	376.18455642199
10	380310	1540	375.30628952248
10	385572	1560	233.24090149555
10	390899	1580	229.81238246952
10	396163	1600	323.64642768239
10	401358	1620	242.25587837661
10	406610	1640	378.97028458611
10	411970	1660	279.90585834788
10	417307	1680	235.11502059371
10	422560	1700	142.29612666434
10	427975	1720	191.25550791389
10	433312	1740	466.59327392849
10	438752	1760	230.28283630684
10	444074	1780	329.12438882925
10	449448	1800	182.99092743221
10	454345	1820	473.61391331542
10	458694	1840	287.52584659398
10	462473	1860	281.89517307624
10	465836	1880	193.13032053433
10	468751	1900	336.92322842496
10	471266	1920	95.590439033094
10	473264	1940	139.83544065104
10	474810	1960	48.808340908305
10	475865	1980	142.81817245976
10	476474	2000	47.274122869743
11	34460	240	46.962297251962
11	39851	260	46.284244209838
11	45153	280	47.04958100675
11	50334	300	47.559012637394
11	55772	320	47.018261245592
11	61108	340	47.937364932132
11	66504	360	46.766631836977
11	71767	380	47.612001233032
11	77116	400	47.032423105666
11	82415	420	49.126742718132
11	87813	440	45.689066851406
11	93156	460	47.248496857254
11	98467	480	46.568370604431
11	103718	500	45.977563680893
11	109054	520	47.881913236052
11	114371	540	47.347401349709
11	119716	560	47.355235922441
11	125052	580	46.236334429744
11	130408	600	47.139672910355
11	135692	620	46.527280837574
11	141046	640	47.083019784671
11	146382	660	46.824113099643
11	151726	680	47.984823752335
11	157004	700	47.805897339312
11	162331	720	47.548755322074
11	167587	740	46.178391343505
11	172877	760	47.096111927699
11	178210	780	46.74395186248
11	183454	800	46.390357012148
11	188853	820	48.772984801853
11	194267	840	48.220528447454
11	199598	860	46.580961174574
11	204771	880	47.315900802504
11	209991	900	47.060053128904
11	215315	920	46.595935222098
11	220694	940	47.29691777906
11	226077	960	46.664693438193
11	231450	980	47.707191126019
11	236799	1000	46.47675950407
11	242033	1020	46.845932286112
11	247372	1040	46.98144126931
11	252627	1060	46.514164090766
11	257990	1080	46.519348807183
11	263394	1100	46.248765451211
11	268810	1120	46.175378580053
11	274167	1140	46.424117470088
11	279440	1160	47.249046592598
11	284731	1180	45.275651770121
11	290041	1200	46.612193297428
11	295341	1220	48.13144174762
11	300656	1240	46.097842163523
11	305927	1260	46.596239936986
11	311252	1280	47.639377448004
11	316557	1300	45.755732099687
11	321890	1320	47.284863013565
11	327163	1340	46.6341254195
11	332417	1360	46.124987177748
11	337831	1380	45.978746035188
11	343032	1400	46.932448744509
11	348365	1420	46.043723897151
11	353631	1440	46.242177204135
11	359118	1460	46.366564669116
11	364340	1480	46.586884139956
11	369592	1500	47.03456411242
11	374935	1520	47.023069552749
11	380310	1540	46.913286190311
11	385572	1560	46.64818029911
11	390899	1580	45.962476493904
11	396163	1600	46.235203954627
11	401358	1620	48.451175675323
11	406610	1640	47.371285573264
11	411970	1660	46.650976391313
11	417307	1680	47.023004118741
11	422560	1700	47.432042221447
11	427975	1720	47.813876978472
11	433312	1740	46.659327392849
11	438752	1760	46.056567261369
11	444074	1780	47.01776983275
11	449448	1800	45.747731858052
11	454345	1820	47.361391331542
11	458694	1840	47.92097443233
11	462473	1860	46.98252884604
11	465836	1880	48.282580133583
11	468751	1900	48.131889774995
11	471266	1920	47.795219516547
11	473264	1940	46.611813550347
11	474810	1960	48.808340908305
11	475865	1980	47.606057486585
11	476474	2000	47.274122869743
12	34460	240	1.8836357603266
12	39851	260	0.80418815064177
12	45153	280	2.0381567096252
12	50334	300	1.8690897132525
12	55772	320	1.5138281933508
12	61108	340	2.4266035021137
12	66504	360	1.1503026198932
12	71767	380	1.1301205106589
12	77116	400	3.1869027004934
12	82415	420	3.2362698996612
12	87813	440	2.9726171868851
12	93156	460	2.2916374015503
12	98467	480	1.0290630715416
12	103718	500	0.80009780777939
12	109054	520	1.4436583139087
12	114371	540	1.7694275446637
12	119716	560	1.2446667433602
12	125052	580	1.4671017021276
12	130408	600	1.7692246436609
12	135692	620	1.456243202998
12	141046	640	2.4488995279223
12	146382	660	2.0465910998508
12	151726	680	3.1970833471834
12	157004	700	2.5408319421656
12	162331	720	2.3505351575884
12	167587	740	0.93773231262017
12	172877	760	1.2282113728728
12	178210	780	1.3177654626695
12	183454	800	0.42920473254192
12	188853	820	3.0342141914711
12	194267	840	1.9632823791397
12	199598	860	2.8023597860276
12	204771	880	1.9579836619501
12	209991	900	1.4049479133398
12	215315	920	1.2146906111725
12	220694	940	2.3076791190997
12	226077	960	1.5111006735962
12	231450	980	2.2956544237714
12	236799	1000	2.2131352368321
12	242033	1020	0.74769732709004
12	247372	1040	1.7774669708035
12	252627	1060	1.5311146899496
12	257990	1080	0.7618421792297
12	263394	1100	1.1789959185978
12	268810	1120	1.2596953530268
12	274167	1140	1.2489072739791
12	279440	1160	2.2914240105543
12	284731	1180	0.35693211584608
12	290041	1200	1.282853379798
12	295341	1220	3.7168732785714
12	300656	1240	1.0299581921251
12	305927	1260	1.8369073461914
12	311252	1280	2.1039238077813
12	316557	1300	0.39608804381722
12	321890	1320	3.3875601558056
12	327163	1340	2.2032316659791
12	332417	1360	0.84393345766472
12	337831	1380	0.94165818132315
12	343032	1400	2.2578908784215
12	348365	1420	0.92947883846524
12	353631	1440	1.145396645305
12	359118	1460	0.59711539777144
12	364340	1480	0.97498983819869
12	369592	1500	1.4005671276473
12	374935	1520	1.3780428854371
12	380310	1540	1.0105758736661
12	385572	1560	0.69310055114479
12	390899	1580	0.56477994737887
12	396163	1600	0.96084571337061
12	401358	1620	2.3187849824884
12	406610	1640	1.6525896242469
12	411970	1660	2.8619720119755
12	417307	1680	0.59605791128704
12	422560	1700	0.82735941838561
12	427975	1720	0.9842429553891
12	433312	1740	1.1525972256179
12	438752	1760	0.93539228497227
12	444074	1780	1.4479127803297
12	449448	1800	0.84709028822388
12	454345	1820	1.9870215423228
12	458694	1840	2.2465980631741
12	462473	1860	1.9146525491773
12	465836	1880	1.8469888222
12	468751	1900	2.2864985488352
12	471266	1920	0.60308571996036
12	473264	1940	2.3798986543701
12	474810	1960	nan
12	475865	1980	1.1349150200892
12	476474	2000	nan
13	34460	240	3.5480836775812
13	39851	260	0.64671858163263
13	45153	280	4.1540827729903
13	50334	300	3.4934963561864