file 4702 1427414822                                            
version 2
run statisticRVV-192-20150327-00:59:55-7116
attr c 8
attr configname statisticRVV
attr datetime 20150327-00:59:55
attr experiment statisticRVV
attr inifile omnetpp.ini
attr iterationvars "$sc=\"erlangen-medium.launchd.xml\", $p=1/8, $c=8"
attr iterationvars2 "$sc=\"erlangen-medium.launchd.xml\", $p=1/8, $c=8, $repetition=2"
attr measurement "$sc=\"erlangen-medium.launchd.xml\", $p=1/8, $c=8"
attr network RSUExampleScenario
attr p 1/8
attr processid 7116
attr repetition 2
attr replication #2
attr resultdir results
attr runnumber 192
attr sc "\"erlangen-medium.launchd.xml\""
attr seedset 192

vector 0  RSUExampleScenario.rsu[0].appl  Number_CH  ETV
vector 1  RSUExampleScenario.rsu[0].appl  Number_ON  ETV
vector 2  RSUExampleScenario.rsu[0].appl  Number_FN  ETV
vector 3  RSUExampleScenario.rsu[0].appl  Number_CH_Losts  ETV
vector 4  RSUExampleScenario.rsu[0].appl  Number_CH_Losts  ETV
vector 5  RSUExampleScenario.rsu[0].appl  Mean_Cluster_Size  ETV
vector 6  RSUExampleScenario.rsu[0].appl  StdDev_Cluster_Size  ETV
vector 7  RSUExampleScenario.rsu[0].appl  Variance_Cluster_Size  ETV
vector 8  RSUExampleScenario.rsu[0].appl  Mean_Neighbors  ETV
vector 9  RSUExampleScenario.rsu[0].appl  StdDev_Neighbors  ETV
vector 10  RSUExampleScenario.rsu[0].appl  Variance_Neighbors  ETV
vector 11  RSUExampleScenario.rsu[0].appl  Total_CH_Utility  ETV
vector 12  RSUExampleScenario.rsu[0].appl  Mean_CH_Utility  ETV
vector 13  RSUExampleScenario.rsu[0].appl  StdDev_CH_Utility  ETV
vector 14  RSUExampleScenario.rsu[0].appl  Variance_CH_Utility  ETV
vector 15  RSUExampleScenario.rsu[0].appl  Total_exp_CH_Utility  ETV
vector 16  RSUExampleScenario.rsu[0].appl  Mean_exp_CH_Utility  ETV
vector 17  RSUExampleScenario.rsu[0].appl  StdDev_exp_CH_Utility  ETV
vector 18  RSUExampleScenario.rsu[0].appl  Variance_exp_CH_Utility  ETV
vector 19  RSUExampleScenario.rsu[0].appl  Total_ON_Utility  ETV
vector 20  RSUExampleScenario.rsu[0].appl  Mean_ON_Utility  ETV
vector 21  RSUExampleScenario.rsu[0].appl  StdDev_ON_Utility  ETV
vector 22  RSUExampleScenario.rsu[0].appl  Variance_ON_Utility  ETV
vector 23  RSUExampleScenario.rsu[0].appl  Total_exp_ON_Utility  ETV
vector 24  RSUExampleScenario.rsu[0].appl  Mean_exp_ON_Utility  ETV
vector 25  RSUExampleScenario.rsu[0].appl  StdDev_exp_ON_Utility  ETV
vector 26  RSUExampleScenario.rsu[0].appl  Variance_exp_ON_Utility  ETV
0	2430 49 145499 198378 240 280 3 6 11 23 193
1	2479 50 145499 198378 240 280 3 9 15 35 427
2	2529 51 145499 198378 240 280 3 59 77 198 13254
3	2580 48 145499 198378 240 280 3 3 8 14 82
4	2628 51 145499 198378 240 280 3 55 69 183 11267
5	2679 78 145499 198378 240 280 3 1.3636363636364 1.8333333333333 4.6969696969697 7.4706152433425
6	2757 93 145499 198378 240 280 3 0.40824829046386 0.54772255750517 1.4604958270785 0.72121212121212
7	2850 80 145499 198378 240 280 3 0.16666666666667 0.3 0.72121212121212 0.18257116620753
8	2930 90 145499 198378 240 280 3 22.304347826087 22.833333333333 67.795909007522 1532.2403322747
9	3020 90 145499 198378 240 280 3 3.8521886544819 4.8619033836063 12.821814945257 55.350849423324
10	3110 93 145499 198378 240 280 3 14.839357429719 23.638104511522 55.350849423324 1063.6777189451
11	3203 93 145499 198378 240 280 3 292.85325449921 529.87692364337 1120.3324915498 455099.7198259
12	3296 93 145499 198378 240 280 3 48.170629422125 49.600385567878 146.57989073987 7162.9141393719
13	3389 93 145499 198378 240 280 3 1.8466092726507 2.0994835662636 5.8333510898729 11.379540756662
14	3482 93 145499 198378 240 280 3 3.4099658058396 4.4078312450109 11.379540756662 43.742861307376
15	3575 93 145499 198378 240 280 3 405.24916841039 633.80189085377 1668.035041301 961552.57500611
16	3668 93 145499 198378 240 280 3 44.927427288349 45.271563632412 135.22667629969 6095.4806470575
17	3761 96 145499 198378 240 280 3 0.33003194025191 0.92956899555077 1.925117236219 1.4159315451955
18	3857 96 145499 198378 240 280 3 0.10892108158644 0.86409851748926 1.4159315451955 0.95470104195671
19	3953 93 145499 198378 240 280 3 1641.9941970751 1853.7967488643 5285.7787601332 9336763.7042903
20	4046 93 145499 198378 240 280 3 48.293946972798 48.784124970114 145.45612097517 7052.6317914791
21	4139 93 145499 198378 240 280 3 2.1582052129026 2.6322753303194 7.3352445720202 18.062547117873
22	4232 93 145499 198378 240 280 3 4.6578497409998 6.9288734146083 18.062547117873 111.64114699565
23	4325 93 145499 198378 240 280 3 3140.3194107009 3513.2277743202 9794.8328446633 32072050.990953
24	4418 92 145499 198378 240 280 3 44.861705867155 45.041381722054 134.77859701267 6055.110066758
25	4510 96 145499 198378 240 280 3 0.45296140416468 0.77779076309549 1.7276229851111 1.0570131144514
26	4606 96 145499 198378 240 280 3 0.20517403366284 0.60495847115666 1.0570131144514 0.46902117132588
