file 70593 1427295994                                           
version 2
run statisticRVV-143-20150325-15:18:24-13972
attr c 16
attr configname statisticRVV
attr datetime 20150325-15:18:24
attr experiment statisticRVV
attr inifile omnetpp.ini
attr iterationvars "$sc=\"erlangen-medium.launchd.xml\", $p=1/15, $c=16"
attr iterationvars2 "$sc=\"erlangen-medium.launchd.xml\", $p=1/15, $c=16, $repetition=3"
attr measurement "$sc=\"erlangen-medium.launchd.xml\", $p=1/15, $c=16"
attr network RSUExampleScenario
attr p 1/15
attr processid 13972
attr repetition 3
attr replication #3
attr resultdir results
attr runnumber 143
attr sc "\"erlangen-medium.launchd.xml\""
attr seedset 143

vector 0  RSUExampleScenario.rsu[0].appl  Number_CH  ETV
vector 1  RSUExampleScenario.rsu[0].appl  Number_ON  ETV
vector 2  RSUExampleScenario.rsu[0].appl  Number_FN  ETV
vector 3  RSUExampleScenario.rsu[0].appl  Number_CH_Losts  ETV
vector 4  RSUExampleScenario.rsu[0].appl  Mean_Cluster_Size  ETV
vector 5  RSUExampleScenario.rsu[0].appl  StdDev_Cluster_Size  ETV
vector 6  RSUExampleScenario.rsu[0].appl  Variance_Cluster_Size  ETV
vector 7  RSUExampleScenario.rsu[0].appl  Mean_Neighbors  ETV
vector 8  RSUExampleScenario.rsu[0].appl  StdDev_Neighbors  ETV
vector 9  RSUExampleScenario.rsu[0].appl  Variance_Neighbors  ETV
vector 10  RSUExampleScenario.rsu[0].appl  Total_CH_Utility  ETV
vector 11  RSUExampleScenario.rsu[0].appl  Mean_CH_Utility  ETV
vector 12  RSUExampleScenario.rsu[0].appl  StdDev_CH_Utility  ETV
vector 13  RSUExampleScenario.rsu[0].appl  Variance_CH_Utility  ETV
vector 14  RSUExampleScenario.rsu[0].appl  Total_exp_CH_Utility  ETV
vector 15  RSUExampleScenario.rsu[0].appl  Mean_exp_CH_Utility  ETV
vector 16  RSUExampleScenario.rsu[0].appl  StdDev_exp_CH_Utility  ETV
vector 17  RSUExampleScenario.rsu[0].appl  Variance_exp_CH_Utility  ETV
vector 18  RSUExampleScenario.rsu[0].appl  Total_ON_Utility  ETV
vector 19  RSUExampleScenario.rsu[0].appl  Mean_ON_Utility  ETV
vector 20  RSUExampleScenario.rsu[0].appl  StdDev_ON_Utility  ETV
vector 21  RSUExampleScenario.rsu[0].appl  Variance_ON_Utility  ETV
vector 22  RSUExampleScenario.rsu[0].appl  Total_exp_ON_Utility  ETV
vector 23  RSUExampleScenario.rsu[0].appl  Mean_exp_ON_Utility  ETV
vector 24  RSUExampleScenario.rsu[0].appl  StdDev_exp_ON_Utility  ETV
vector 25  RSUExampleScenario.rsu[0].appl  Variance_exp_ON_Utility  ETV
0	2375 1562 144977 7122356 240 2000 89 2 14 687 5971
1	3937 1589 144977 7122356 240 2000 89 2 20 990 12626
2	5526 1691 144977 7122356 240 2000 89 57 176 10886 1404902
3	7217 1537 144977 7122356 240 2000 89 0 7 199 651
4	8754 2269 144977 7122356 240 2000 89 1 2 128.39546287046 190.0690555555
5	11023 2727 144977 7122356 240 2000 89 0 0.82327260234856 42.651442552624 22.164593739594
6	13750 2568 144977 7122356 240 2000 89 0 0.67777777777778 22.164593739594 6.475774433807
7	16318 2739 144977 7122356 240 2000 89 21.76 61.737113402062 3388.0633971258 144214.38777723
8	19057 2778 144977 7122356 240 2000 89 3.2657002044505 31.711700990256 1399.5395247335 30393.607591258
9	21835 2775 144977 7122356 240 2000 89 10.664797825348 1005.6319796954 30393.607591258 20096245.905848
10	24610 2866 144977 7122356 240 2000 89 96.246759952907 696.25688059601 34087.675158072 14767295.935175
11	27476 2863 144977 7122356 240 2000 89 46.843076915984 52.691022093233 4404.5749389457 218093.22630341
12	30339 2862 144977 7122356 240 2000 89 0.36873071481889 5.7232035127233 198.12051283481 496.48892349323
13	33201 2871 144977 7122356 240 2000 89 0.13596234005085 32.755058448049 496.48892349323 4358.3855104871
14	36072 2870 144977 7122356 240 2000 89 134.20633034831 814.32398044403 40300.494704088 20316653.430932
15	38942 2863 144977 7122356 240 2000 89 44.675151048325 46.598570189846 4052.1531849005 184506.22899534
16	41805 2901 144977 7122356 240 2000 89 0.15952975151322 1.8645895296559 90.932763680717 102.62761517284
17	44706 2905 144977 7122356 240 2000 89 0.025449741617871 3.4766941141026 102.62761517284 158.77728184356
18	47611 2862 144977 7122356 240 2000 89 1182.9429342253 5409.0238822769 291617.53780494 1077924104.3636
19	50473 2863 144977 7122356 240 2000 89 47.317717369013 51.028527191291 4439.1666627278 221498.10452152
20	53336 2867 144977 7122356 240 2000 89 1.5300868774661 4.1001540145571 245.04565053195 694.5220771598
21	56203 2858 144977 7122356 240 2000 89 2.3411658525938 16.811262943089 694.5220771598 6038.5232922894
22	59061 2865 144977 7122356 240 2000 89 3092.7005978335 8389.6406473017 531143.64154078 3340116142.3425
23	61926 2868 144977 7122356 240 2000 89 44.821747794689 45.769581349882 4052.3282225725 184513.16938954
24	64794 2899 144977 7122356 240 2000 89 0.43159257615991 1.496346462266 93.387116650025 101.878580785
25	67693 2900 144977 7122356 240 2000 89 0.18627215179635 2.239052735136 101.878580785 133.47675635132
