version 2
run statisticRVV-59-20150327-02:12:41-12924
attr c 11
attr configname statisticRVV
attr datetime 20150327-02:12:41
attr experiment statisticRVV
attr inifile omnetpp.ini
attr iterationvars "$sc=\"erlangen-low.launchd.xml\", $p=1/10, $c=11"
attr iterationvars2 "$sc=\"erlangen-low.launchd.xml\", $p=1/10, $c=11, $repetition=9"
attr measurement "$sc=\"erlangen-low.launchd.xml\", $p=1/10, $c=11"
attr network RSUExampleScenario
attr p 1/10
attr processid 12924
attr repetition 9
attr replication #9
attr resultdir results
attr runnumber 59
attr sc "\"erlangen-low.launchd.xml\""
attr seedset 59

vector 0  RSUExampleScenario.rsu[0].appl  Number_CH  ETV
vector 1  RSUExampleScenario.rsu[0].appl  Number_ON  ETV
vector 2  RSUExampleScenario.rsu[0].appl  Number_FN  ETV
vector 3  RSUExampleScenario.rsu[0].appl  Number_CH_Losts  ETV
vector 4  RSUExampleScenario.rsu[0].appl  Number_CH_Losts  ETV
vector 5  RSUExampleScenario.rsu[0].appl  Mean_Cluster_Size  ETV
vector 6  RSUExampleScenario.rsu[0].appl  StdDev_Cluster_Size  ETV
vector 7  RSUExampleScenario.rsu[0].appl  Variance_Cluster_Size  ETV
vector 8  RSUExampleScenario.rsu[0].appl  Mean_Neighbors  ETV
vector 9  RSUExampleScenario.rsu[0].appl  StdDev_Neighbors  ETV
vector 10  RSUExampleScenario.rsu[0].appl  Variance_Neighbors  ETV
vector 11  RSUExampleScenario.rsu[0].appl  Total_CH_Utility  ETV
vector 12  RSUExampleScenario.rsu[0].appl  Mean_CH_Utility  ETV
vector 13  RSUExampleScenario.rsu[0].appl  StdDev_CH_Utility  ETV
vector 14  RSUExampleScenario.rsu[0].appl  Variance_CH_Utility  ETV
vector 15  RSUExampleScenario.rsu[0].appl  Total_exp_CH_Utility  ETV
vector 16  RSUExampleScenario.rsu[0].appl  Mean_exp_CH_Utility  ETV
vector 17  RSUExampleScenario.rsu[0].appl  StdDev_exp_CH_Utility  ETV
vector 18  RSUExampleScenario.rsu[0].appl  Variance_exp_CH_Utility  ETV
vector 19  RSUExampleScenario.rsu[0].appl  Total_ON_Utility  ETV
vector 20  RSUExampleScenario.rsu[0].appl  Mean_ON_Utility  ETV
vector 21  RSUExampleScenario.rsu[0].appl  StdDev_ON_Utility  ETV
vector 22  RSUExampleScenario.rsu[0].appl  Variance_ON_Utility  ETV
vector 23  RSUExampleScenario.rsu[0].appl  Total_exp_ON_Utility  ETV
vector 24  RSUExampleScenario.rsu[0].appl  Mean_exp_ON_Utility  ETV
vector 25  RSUExampleScenario.rsu[0].appl  StdDev_exp_ON_Utility  ETV
vector 26  RSUExampleScenario.rsu[0].appl  Variance_exp_ON_Utility  ETV
0	34552	240	3
0	39906	260	4
0	45296	280	7
0	50585	300	0
0	55875	320	7
0	61157	340	2
0	66457	360	6
0	71826	380	7
0	77205	400	3
0	82463	420	6
0	87829	440	3
0	93184	460	5
0	98447	480	4
0	103673	500	3
0	109016	520	3
0	114276	540	5
0	119658	560	5
0	124948	580	5
0	130296	600	3
0	135610	620	2
0	140850	640	4
0	146157	660	2
0	151403	680	2
0	156610	700	5
0	161846	720	2
0	167127	740	5
0	172348	760	0
0	177593	780	4
0	182908	800	4
0	188198	820	2
0	193548	840	3
0	198738	860	6
0	204081	880	5
0	209426	900	3
0	214753	920	5
0	219979	940	5
0	225333	960	3
0	230581	980	1
0	235936	1000	1
0	241258	1020	2
0	246568	1040	1
0	251972	1060	3
0	257314	1080	4
0	262497	1100	1
0	267955	1120	4
0	273255	1140	5
0	278564	1160	3
0	283926	1180	5
0	289306	1200	4
0	294590	1220	2
0	299838	1240	1
0	305152	1260	4
0	310406	1280	2
0	315660	1300	7
0	320991	1320	4
0	326345	1340	3
0	331602	1360	3
0	336878	1380	1
0	342190	1400	5
0	347492	1420	3
0	352719	1440	0
0	357966	1460	3
0	363321	1480	2
0	368520	1500	5
0	373768	1520	3
0	379162	1540	3
0	384501	1560	5
0	389767	1580	7
0	395104	1600	4
0	400459	1620	5
0	405839	1640	2
0	411284	1660	3
0	416538	1680	3
0	421895	1700	7
0	427212	1720	7
0	432499	1740	2
0	437810	1760	2
0	443236	1780	5
0	448577	1800	2
0	453439	1820	5
0	457688	1840	3
0	461527	1860	6
0	464914	1880	1
0	467864	1900	0
0	470411	1920	1
0	472510	1940	2
0	474108	1960	2
0	475125	1980	1
0	475742	2000	0
1	34552	240	6
1	39906	260	5
1	45296	280	17
1	50585	300	0
1	55875	320	19
1	61157	340	8
1	66457	360	16
1	71826	380	16
1	77205	400	11
1	82463	420	12
1	87829	440	11
1	93184	460	14
1	98447	480	10
1	103673	500	11
1	109016	520	11
1	114276	540	8
1	119658	560	14
1	124948	580	17
1	130296	600	11
1	135610	620	8
1	140850	640	7
1	146157	660	5
1	151403	680	13
1	156610	700	13
1	161846	720	9
1	167127	740	16
1	172348	760	0
1	177593	780	8
1	182908	800	15
1	188198	820	3
1	193548	840	8
1	198738	860	16
1	204081	880	13
1	209426	900	8
1	214753	920	9
1	219979	940	10
1	225333	960	7
1	230581	980	7
1	235936	1000	2
1	241258	1020	8
1	246568	1040	2
1	251972	1060	14
1	257314	1080	9
1	262497	1100	2
1	267955	1120	11
1	273255	1140	17
1	278564	1160	9
1	283926	1180	11
1	289306	1200	11
1	294590	1220	4
1	299838	1240	2
1	305152	1260	11
1	310406	1280	5
1	315660	1300	17
1	320991	1320	13
1	326345	1340	5
1	331602	1360	9
1	336878	1380	2
1	342190	1400	9
1	347492	1420	5
1	352719	1440	0
1	357966	1460	9
1	363321	1480	10
1	368520	1500	15
1	373768	1520	11
1	379162	1540	10
1	384501	1560	15
1	389767	1580	17
1	395104	1600	9
1	400459	1620	17
1	405839	1640	7
1	411284	1660	13
1	416538	1680	9
1	421895	1700	11
1	427212	1720	14
1	432499	1740	2
1	437810	1760	9
1	443236	1780	12
1	448577	1800	7
1	453439	1820	13
1	457688	1840	9
1	461527	1860	10
1	464914	1880	1
1	467864	1900	0
1	470411	1920	2
1	472510	1940	5
1	474108	1960	4
1	475125	1980	2
1	475742	2000	0
2	34552	240	31
2	39906	260	32
2	45296	280	16
2	50585	300	40
2	55875	320	15
2	61157	340	30
2	66457	360	19
2	71826	380	18
2	77205	400	26
2	82463	420	21
2	87829	440	27
2	93184	460	21
2	98447	480	26
2	103673	500	27
2	109016	520	26
2	114276	540	27
2	119658	560	22
2	124948	580	18
2	130296	600	27
2	135610	620	31
2	140850	640	30
2	146157	660	33
2	151403	680	25
2	156610	700	21
2	161846	720	28
2	167127	740	19
2	172348	760	39
2	177593	780	29
2	182908	800	21
2	188198	820	35
2	193548	840	30
2	198738	860	17
2	204081	880	23
2	209426	900	30
2	214753	920	25
2	219979	940	26
2	225333	960	30
2	230581	980	32
2	235936	1000	38
2	241258	1020	30
2	246568	1040	37
2	251972	1060	24
2	257314	1080	28
2	262497	1100	36
2	267955	1120	26
2	273255	1140	18
2	278564	1160	28
2	283926	1180	25
2	289306	1200	25
2	294590	1220	35
2	299838	1240	38
2	305152	1260	26
2	310406	1280	34
2	315660	1300	16
2	320991	1320	24
2	326345	1340	32
2	331602	1360	28
2	336878	1380	37
2	342190	1400	27
2	347492	1420	32
2	352719	1440	40
2	357966	1460	28
2	363321	1480	29
2	368520	1500	20
2	373768	1520	27
2	379162	1540	29
2	384501	1560	20
2	389767	1580	16
2	395104	1600	27
2	400459	1620	19
2	405839	1640	31
2	411284	1660	25
2	416538	1680	27
2	421895	1700	21
2	427212	1720	19
2	432499	1740	36
2	437810	1760	30
2	443236	1780	24
2	448577	1800	32
2	453439	1820	19
2	457688	1840	21
2	461527	1860	15
2	464914	1880	25
2	467864	1900	24
2	470411	1920	17
2	472510	1940	10
2	474108	1960	7
2	475125	1980	7
2	475742	2000	8
3	34552	240	0
3	39906	260	0
3	45296	280	0
3	50585	300	0
3	55875	320	0
3	61157	340	0
3	66457	360	0
3	71826	380	2
3	77205	400	0
3	82463	420	0
3	87829	440	1
3	93184	460	0
3	98447	480	0
3	103673	500	0
3	109016	520	0
3	114276	540	2
3	119658	560	0
3	124948	580	0
3	130296	600	0
3	135610	620	0
3	140850	640	0
3	146157	660	0
3	151403	680	0
3	156610	700	0
3	161846	720	0
3	167127	740	0
3	172348	760	0
3	177593	780	0
3	182908	800	0
3	188198	820	1
3	193548	840	0
3	198738	860	0
3	204081	880	1
3	209426	900	0
3	214753	920	1
3	219979	940	0
3	225333	960	1
3	230581	980	0
3	235936	1000	0
3	241258	1020	0
3	246568	1040	0
3	251972	1060	0
3	257314	1080	0
3	262497	1100	0
3	267955	1120	0
3	273255	1140	0
3	278564	1160	0
3	283926	1180	3
3	289306	1200	1
3	294590	1220	0
3	299838	1240	0
3	305152	1260	0
3	310406	1280	0
3	315660	1300	0
3	320991	1320	2
3	326345	1340	0
3	331602	1360	1
3	336878	1380	0
3	342190	1400	0
3	347492	1420	0
3	352719	1440	0
3	357966	1460	0
3	363321	1480	0
3	368520	1500	0
3	373768	1520	1
3	379162	1540	2
3	384501	1560	0
3	389767	1580	0
3	395104	1600	0
3	400459	1620	1
3	405839	1640	0
3	411284	1660	0
3	416538	1680	0
3	421895	1700	0
3	427212	1720	0
3	432499	1740	1
3	437810	1760	0
3	443236	1780	0
3	448577	1800	0
3	453439	1820	0
3	457688	1840	0
3	461527	1860	0
3	464914	1880	0
3	467864	1900	0
3	470411	1920	0
3	472510	1940	0
3	474108	1960	0
3	475125	1980	0
3	475742	2000	0
4	34552	240	31
4	39906	260	32
4	45296	280	15
4	50585	300	40
4	55875	320	15
4	61157	340	30
4	66457	360	18
4	71826	380	16
4	77205	400	26
4	82463	420	21
4	87829	440	26
4	93184	460	21
4	98447	480	26
4	103673	500	27
4	109016	520	26
4	114276	540	25
4	119658	560	22
4	124948	580	18
4	130296	600	27
4	135610	620	30
4	140850	640	30
4	146157	660	33
4	151403	680	24
4	156610	700	21
4	161846	720	28
4	167127	740	19
4	172348	760	39
4	177593	780	29
4	182908	800	21
4	188198	820	34
4	193548	840	29
4	198738	860	17
4	204081	880	22
4	209426	900	30
4	214753	920	24
4	219979	940	26
4	225333	960	29
4	230581	980	32
4	235936	1000	38
4	241258	1020	30
4	246568	1040	37
4	251972	1060	23
4	257314	1080	28
4	262497	1100	36
4	267955	1120	26
4	273255	1140	18
4	278564	1160	28
4	283926	1180	22
4	289306	1200	24
4	294590	1220	35
4	299838	1240	38
4	305152	1260	26
4	310406	1280	34
4	315660	1300	16
4	320991	1320	22
4	326345	1340	31
4	331602	1360	27
4	336878	1380	37
4	342190	1400	27
4	347492	1420	31
4	352719	1440	39
4	357966	1460	28
4	363321	1480	29
4	368520	1500	20
4	373768	1520	26
4	379162	1540	26
4	384501	1560	20
4	389767	1580	15
4	395104	1600	27
4	400459	1620	18
4	405839	1640	31
4	411284	1660	24
4	416538	1680	27
4	421895	1700	21
4	427212	1720	19
4	432499	1740	34
4	437810	1760	30
4	443236	1780	24
4	448577	1800	32
4	453439	1820	19
4	457688	1840	21
4	461527	1860	15
4	464914	1880	25
4	467864	1900	24
4	470411	1920	17
4	472510	1940	10
4	474108	1960	7
4	475125	1980	7
4	475742	2000	8
5	34552	240	2
5	39906	260	1.25
5	45296	280	2.4285714285714
5	50585	300	nan
5	55875	320	2.7142857142857
5	61157	340	4
5	66457	360	2.6666666666667
5	71826	380	2.2857142857143
5	77205	400	3.6666666666667
5	82463	420	2
5	87829	440	3.6666666666667
5	93184	460	2.8
5	98447	480	2.5
5	103673	500	3.6666666666667
5	109016	520	3.6666666666667
5	114276	540	1.6
5	119658	560	2.8
5	124948	580	3.4
5	130296	600	3.6666666666667
5	135610	620	4
5	140850	640	1.75
5	146157	660	2.5
5	151403	680	6.5
5	156610	700	2.6
5	161846	720	4.5
5	167127	740	3.2
5	172348	760	nan
5	177593	780	2
5	182908	800	3.75
5	188198	820	1.5
5	193548	840	2.6666666666667
5	198738	860	2.6666666666667
5	204081	880	2.6
5	209426	900	2.6666666666667
5	214753	920	1.8
5	219979	940	2
5	225333	960	2.3333333333333
5	230581	980	7
5	235936	1000	2
5	241258	1020	4
5	246568	1040	2
5	251972	1060	4.6666666666667
5	257314	1080	2.25
5	262497	1100	2
5	267955	1120	2.75
5	273255	1140	3.4
5	278564	1160	3
5	283926	1180	2.2
5	289306	1200	2.75
5	294590	1220	2
5	299838	1240	2
5	305152	1260	2.75
5	310406	1280	2.5
5	315660	1300	2.4285714285714
5	320991	1320	3.25
5	326345	1340	1.6666666666667
5	331602	1360	3
5	336878	1380	2
5	342190	1400	1.8
5	347492	1420	1.6666666666667
5	352719	1440	nan
5	357966	1460	3
5	363321	1480	5
5	368520	1500	3
5	373768	1520	3.6666666666667
5	379162	1540	3.3333333333333
5	384501	1560	3
5	389767	1580	2.4285714285714
5	395104	1600	2.25
5	400459	1620	3.4
5	405839	1640	3.5
5	411284	1660	4.3333333333333
5	416538	1680	3
5	421895	1700	1.5714285714286
5	427212	1720	2
5	432499	1740	1
5	437810	1760	4.5
5	443236	1780	2.4
5	448577	1800	3.5
5	453439	1820	2.6
5	457688	1840	3
5	461527	1860	1.6666666666667
5	464914	1880	1
5	467864	1900	nan
5	470411	1920	2
5	472510	1940	2.5
5	474108	1960	2
5	475125	1980	2
5	475742	2000	nan
6	34552	240	1
6	39906	260	0.5
6	45296	280	1.1338934190277
6	50585	300	nan
6	55875	320	2.4299715851758
6	61157	340	1.4142135623731
6	66457	360	1.3662601021279
6	71826	380	1.7043362064927
6	77205	400	0.57735026918963
6	82463	420	0.63245553203368
6	87829	440	2.8867513459481
6	93184	460	1.9235384061671
6	98447	480	0.57735026918963
6	103673	500	2.0816659994661
6	109016	520	2.8867513459481
6	114276	540	0.89442719099992
6	119658	560	1.3038404810405
6	124948	580	1.1401754250991
6	130296	600	0.57735026918963
6	135610	620	2.8284271247462
6	140850	640	0.5
6	146157	660	0.70710678118655
6	151403	680	2.1213203435596
6	156610	700	1.5165750888103
6	161846	720	3.5355339059327
6	167127	740	1.0954451150103
6	172348	760	nan
6	177593	780	0.81649658092773
6	182908	800	2.3629078131263
6	188198	820	0.70710678118655
6	193548	840	2.0816659994661
6	198738	860	1.3662601021279
6	204081	880	1.5165750888103
6	209426	900	0.57735026918963
6	214753	920	0.83666002653408
6	219979	940	0.70710678118655
6	225333	960	0.57735026918963
6	230581	980	nan
6	235936	1000	nan
6	241258	1020	2.8284271247462
6	246568	1040	nan
6	251972	1060	2.3094010767585
6	257314	1080	1.5
6	262497	1100	nan
6	267955	1120	2.2173557826083
6	273255	1140	1.6733200530682
6	278564	1160	1
6	283926	1180	1.6431676725155
6	289306	1200	2.2173557826083
6	294590	1220	0
6	299838	1240	nan
6	305152	1260	1.2583057392118
6	310406	1280	0.70710678118655
6	315660	1300	2.1491969707422
6	320991	1320	1.2583057392118
6	326345	1340	0.57735026918963
6	331602	1360	1.7320508075689
6	336878	1380	nan
6	342190	1400	0.83666002653408
6	347492	1420	0.57735026918963
6	352719	1440	nan
6	357966	1460	1.7320508075689
6	363321	1480	4.2426406871193
6	368520	1500	1
6	373768	1520	2.0816659994661
6	379162	1540	1.5275252316519
6	384501	1560	1.870828693387
6	389767	1580	1.8126539343499
6	395104	1600	1.2583057392118
6	400459	1620	3.7815340802378
6	405839	1640	0.70710678118655
6	411284	1660	2.5166114784236
6	416538	1680	1.7320508075689
6	421895	1700	0.78679579246944
6	427212	1720	0.81649658092773
6	432499	1740	0
6	437810	1760	4.9497474683058
6	443236	1780	0.54772255750517
6	448577	1800	3.5355339059327
6	453439	1820	1.8165902124585
6	457688	1840	1
6	461527	1860	0.81649658092773
6	464914	1880	nan
6	467864	1900	nan
6	470411	1920	nan
6	472510	1940	0.70710678118655
6	474108	1960	1.4142135623731
6	475125	1980	nan
6	475742	2000	nan
7	34552	240	1
7	39906	260	0.25
7	45296	280	1.2857142857143
7	50585	300	nan
7	55875	320	5.9047619047619
7	61157	340	2
7	66457	360	1.8666666666667
7	71826	380	2.9047619047619
7	77205	400	0.33333333333333
7	82463	420	0.4
7	87829	440	8.3333333333333
7	93184	460	3.7
7	98447	480	0.33333333333333
7	103673	500	4.3333333333333
7	109016	520	8.3333333333333
7	114276	540	0.8
7	119658	560	1.7
7	124948	580	1.3
7	130296	600	0.33333333333333
7	135610	620	8
7	140850	640	0.25
7	146157	660	0.5
7	151403	680	4.5
7	156610	700	2.3
7	161846	720	12.5
7	167127	740	1.2
7	172348	760	nan
7	177593	780	0.66666666666667
7	182908	800	5.5833333333333
7	188198	820	0.5
7	193548	840	4.3333333333333
7	198738	860	1.8666666666667
7	204081	880	2.3
7	209426	900	0.33333333333333
7	214753	920	0.7
7	219979	940	0.5
7	225333	960	0.33333333333333
7	230581	980	nan
7	235936	1000	nan
7	241258	1020	8
7	246568	1040	nan
7	251972	1060	5.3333333333333
7	257314	1080	2.25
7	262497	1100	nan
7	267955	1120	4.9166666666667
7	273255	1140	2.8
7	278564	1160	1
7	283926	1180	2.7
7	289306	1200	4.9166666666667
7	294590	1220	0
7	299838	1240	nan
7	305152	1260	1.5833333333333
7	310406	1280	0.5
7	315660	1300	4.6190476190476
7	320991	1320	1.5833333333333
7	326345	1340	0.33333333333333
7	331602	1360	3
7	336878	1380	nan
7	342190	1400	0.7
7	347492	1420	0.33333333333333
7	352719	1440	nan
7	357966	1460	3
7	363321	1480	18
7	368520	1500	1
7	373768	1520	4.3333333333333
7	379162	1540	2.3333333333333
7	384501	1560	3.5
7	389767	1580	3.2857142857143
7	395104	1600	1.5833333333333
7	400459	1620	14.3
7	405839	1640	0.5
7	411284	1660	6.3333333333333
7	416538	1680	3
7	421895	1700	0.61904761904762
7	427212	1720	0.66666666666667
7	432499	1740	0
7	437810	1760	24.5
7	443236	1780	0.3
7	448577	1800	12.5
7	453439	1820	3.3
7	457688	1840	1
7	461527	1860	0.66666666666667
7	464914	1880	nan
7	467864	1900	nan
7	470411	1920	nan
7	472510	1940	0.5
7	474108	1960	2
7	475125	1980	nan
7	475742	2000	nan
8	34552	240	8.9
8	39906	260	8.8292682926829
8	45296	280	9.2564102564103
8	50585	300	9.05
8	55875	320	8.9268292682927
8	61157	340	8.85
8	66457	360	9.25
8	71826	380	8.9756097560976
8	77205	400	8.95
8	82463	420	8.8974358974359
8	87829	440	8.780487804878
8	93184	460	9.025
8	98447	480	8.85
8	103673	500	8.6829268292683
8	109016	520	9
8	114276	540	8.775
8	119658	560	8.8048780487805
8	124948	580	8.925
8	130296	600	8.8536585365854
8	135610	620	9
8	140850	640	8.7073170731707
8	146157	660	9.05
8	151403	680	9.2564102564103
8	156610	700	8.9487179487179
8	161846	720	8.8461538461538
8	167127	740	8.85
8	172348	760	8.6410256410256
8	177593	780	8.9268292682927
8	182908	800	8.85
8	188198	820	9.1538461538462
8	193548	840	9.175
8	198738	860	8.8717948717949
8	204081	880	8.8048780487805
8	209426	900	8.9268292682927
8	214753	920	9.1025641025641
8	219979	940	8.8536585365854
8	225333	960	8.825
8	230581	980	9
8	235936	1000	8.9024390243902
8	241258	1020	9.075
8	246568	1040	8.925
8	251972	1060	9.15
8	257314	1080	9.0731707317073
8	262497	1100	9.025641025641
8	267955	1120	8.9024390243902
8	273255	1140	9.2
8	278564	1160	8.875
8	283926	1180	8.6829268292683
8	289306	1200	9
8	294590	1220	8.609756097561
8	299838	1240	8.8048780487805
8	305152	1260	8.6829268292683
8	310406	1280	8.780487804878
8	315660	1300	8.875
8	320991	1320	8.9268292682927
8	326345	1340	9.2051282051282
8	331602	1360	8.95
8	336878	1380	8.775
8	342190	1400	8.9756097560976
8	347492	1420	9.3076923076923
8	352719	1440	8.8974358974359
8	357966	1460	9.1
8	363321	1480	8.6585365853659
8	368520	1500	9.05
8	373768	1520	8.8536585365854
8	379162	1540	8.9512195121951
8	384501	1560	9.05
8	389767	1580	9.1794871794872
8	395104	1600	9.125
8	400459	1620	9.0975609756098
8	405839	1640	8.95
8	411284	1660	9.075
8	416538	1680	9.1794871794872
8	421895	1700	9.2820512820513
8	427212	1720	8.95
8	432499	1740	8.8205128205128
8	437810	1760	9.219512195122
8	443236	1780	8.9268292682927
8	448577	1800	8.8292682926829
8	453439	1820	8.8108108108108
8	457688	1840	8.4545454545455
8	461527	1860	8.5806451612903
8	464914	1880	8.3333333333333
8	467864	1900	8.125
8	470411	1920	8.35
8	472510	1940	8.1176470588235
8	474108	1960	7
8	475125	1980	6.5
8	475742	2000	5.25
9	34552	240	1.9321835661586
9	39906	260	1.6867489295149
9	45296	280	1.8878830906872
9	50585	300	1.3194793067819
9	55875	320	1.587297135108
9	61157	340	1.7327908421284
9	66457	360	1.255755978255
9	71826	380	2.0915043016696
9	77205	400	1.9473848341578
9	82463	420	1.4289280449431
9	87829	440	1.8508402837894
9	93184	460	1.2907461566961
9	98447	480	1.2719861311935
9	103673	500	1.7093715861428
9	109016	520	1.6641005886757
9	114276	540	1.5930538323674
9	119658	560	1.9521720236076
9	124948	580	2.0925692709791
9	130296	600	1.8514990630535
9	135610	620	1.5358952955766
9	140850	640	1.8336289488201
9	146157	660	1.4133067244713
9	151403	680	1.3122489477781
9	156610	700	1.8488790053025
9	161846	720	1.5817788377324
9	167127	740	1.9288630901422
9	172348	760	1.769436120219
9	177593	780	2.01730319861
9	182908	800	2.0945594971687
9	188198	820	1.2883784491911
9	193548	840	1.298667956615
9	198738	860	1.2810252304407
9	204081	880	1.9393234928078
9	209426	900	1.8893152714997
9	214753	920	1.4652980978352
9	219979	940	1.5420923385089
9	225333	960	1.933344385468
9	230581	980	1.8946618668627
9	235936	1000	2.0347589298094
9	241258	1020	1.639066338358
9	246568	1040	1.685344064393
9	251972	1060	1.2919871397312
9	257314	1080	1.6939634574341
9	262497	1100	1.3857769906252
9	267955	1120	2.2338853825653
9	273255	1140	1.2444749691006
9	278564	1160	1.5882178368964
9	283926	1180	1.9031424590693
9	289306	1200	1.5191090506255
9	294590	1220	1.57920943482
9	299838	1240	1.5527316605763
9	305152	1260	1.8899606396727
9	310406	1280	1.4918477657246
9	315660	1300	1.620185174602
9	320991	1320	2.2179973388447
9	326345	1340	1.5420336398045
9	331602	1360	1.9605075219416
9	336878	1380	2.0316407415102
9	342190	1400	1.8773359432724
9	347492	1420	1.3983796290867
9	352719	1440	1.8889550410474
9	357966	1460	1.691608247065
9	363321	1480	2.007607482771
9	368520	1500	1.484103804511
9	373768	1520	1.7827082712793
9	379162	1540	1.4482958867613
9	384501	1560	1.484103804511
9	389767	1580	1.6201331146057
9	395104	1600	1.7713894300296
9	400459	1620	2.1071886252633
9	405839	1640	1.7679482531005
9	411284	1660	2.0303782646187
9	416538	1680	1.5706484559569
9	421895	1700	1.3755136447068
9	427212	1720	1.6004806970215
9	432499	1740	1.7602600715713
9	437810	1760	1.5574369188181
9	443236	1780	1.979775794155
9	448577	1800	2.1201702646768
9	453439	1820	1.5782873600809
9	457688	1840	1.6410916544123
9	461527	1860	1.7468866314749
9	464914	1880	1.6641005886757
9	467864	1900	1.801267669557
9	470411	1920	1.6630662866176
9	472510	1940	2.2046074747326
9	474108	1960	1.5811388300842
9	475125	1980	0.8498365855988
9	475742	2000	1.1649647450214
10	34552	240	3.7333333333333
10	39906	260	2.8451219512195
10	45296	280	3.5641025641026
10	50585	300	1.7410256410256
10	55875	320	2.519512195122
10	61157	340	3.0025641025641
10	66457	360	1.5769230769231
10	71826	380	4.3743902439024
10	77205	400	3.7923076923077
10	82463	420	2.0418353576248
10	87829	440	3.4256097560976
10	93184	460	1.6660256410256
10	98447	480	1.6179487179487
10	103673	500	2.9219512195122
10	109016	520	2.7692307692308
10	114276	540	2.5378205128205
10	119658	560	3.8109756097561
10	124948	580	4.3788461538462
10	130296	600	3.4280487804878
10	135610	620	2.3589743589744
10	140850	640	3.3621951219512
10	146157	660	1.9974358974359
10	151403	680	1.7219973009447
10	156610	700	3.4183535762483
10	161846	720	2.502024291498
10	167127	740	3.7205128205128
10	172348	760	3.1309041835358
10	177593	780	4.069512195122
10	182908	800	4.3871794871795
10	188198	820	1.6599190283401
10	193548	840	1.6865384615385
10	198738	860	1.6410256410256
10	204081	880	3.7609756097561
10	209426	900	3.569512195122
10	214753	920	2.1470985155196
10	219979	940	2.3780487804878
10	225333	960	3.7378205128205
10	230581	980	3.5897435897436
10	235936	1000	4.140243902439
10	241258	1020	2.6865384615385
10	246568	1040	2.8403846153846
10	251972	1060	1.6692307692308
10	257314	1080	2.869512195122
10	262497	1100	1.9203778677463
10	267955	1120	4.990243902439
10	273255	1140	1.5487179487179
10	278564	1160	2.5224358974359
10	283926	1180	3.6219512195122
10	289306	1200	2.3076923076923
10	294590	1220	2.4939024390244
10	299838	1240	2.4109756097561
10	305152	1260	3.5719512195122
10	310406	1280	2.2256097560976
10	315660	1300	2.625
10	320991	1320	4.919512195122
10	326345	1340	2.3778677462888
10	331602	1360	3.8435897435897
10	336878	1380	4.1275641025641
10	342190	1400	3.5243902439024
10	347492	1420	1.9554655870445
10	352719	1440	3.5681511470985
10	357966	1460	2.8615384615385
10	363321	1480	4.030487804878
10	368520	1500	2.2025641025641
10	373768	1520	3.1780487804878
10	379162	1540	2.0975609756098
10	384501	1560	2.2025641025641
10	389767	1580	2.6248313090418
10	395104	1600	3.1378205128205
10	400459	1620	4.440243902439
10	405839	1640	3.125641025641
10	411284	1660	4.1224358974359
10	416538	1680	2.4669365721997
10	421895	1700	1.8920377867746
10	427212	1720	2.5615384615385
10	432499	1740	3.0985155195682
10	437810	1760	2.4256097560976
10	443236	1780	3.919512195122
10	448577	1800	4.4951219512195
10	453439	1820	2.490990990991
10	457688	1840	2.6931818181818
10	461527	1860	3.0516129032258
10	464914	1880	2.7692307692308
10	467864	1900	3.2445652173913
10	470411	1920	2.7657894736842
10	472510	1940	4.8602941176471
10	474108	1960	2.5
10	475125	1980	0.72222222222222
10	475742	2000	1.3571428571429
11	34552	240	138.28497676736
11	39906	260	193.32049840122
11	45296	280	321.91019046781
11	50585	300	0
11	55875	320	321.75606117509
11	61157	340	90.225193718873
11	66457	360	279.97708571268
11	71826	380	315.6367165607
11	77205	400	138.14526918721
11	82463	420	282.30055602631
11	87829	440	134.4857263537
11	93184	460	227.28584697657
11	98447	480	183.35327324939
11	103673	500	139.27059060828
11	109016	520	139.95675554983
11	114276	540	231.23992533969
11	119658	560	230.14609585944
11	124948	580	227.24400562878
11	130296	600	135.73917065507
11	135610	620	92.301845630838
11	140850	640	189.18664440299
11	146157	660	91.230101772265
11	151403	680	90.792585243035
11	156610	700	231.16776432912
11	161846	720	91.985952716634
11	167127	740	230.10793701779
11	172348	760	0
11	177593	780	186.91540941275
11	182908	800	183.20404745864
11	188198	820	92.694777175309
11	193548	840	138.48234331767
11	198738	860	276.84705013024
11	204081	880	237.29466059447
11	209426	900	135.64554735982
11	214753	920	229.1242331455
11	219979	940	236.31708394191
11	225333	960	136.63668727997
11	230581	980	44.853497202636
11	235936	1000	45.881053594577
11	241258	1020	93.186041966643
11	246568	1040	46.686292420823
11	251972	1060	137.24662443008
11	257314	1080	186.45783338887
11	262497	1100	51.335730938908
11	267955	1120	192.10662409584
11	273255	1140	228.44154017978
11	278564	1160	138.17618485116
11	283926	1180	228.76847796655
11	289306	1200	189.91182923668
11	294590	1220	99.361020352854
11	299838	1240	44.597720830647
11	305152	1260	180.53592952365
11	310406	1280	92.40047653331
11	315660	1300	328.02759641883
11	320991	1320	183.79241278278
11	326345	1340	135.63087107988
11	331602	1360	137.9232316645
11	336878	1380	45.977453256284
11	342190	1400	231.60202918624
11	347492	1420	144.20046461324
11	352719	1440	0
11	357966	1460	136.31584554214
11	363321	1480	95.243960615009
11	368520	1500	229.93950639506
11	373768	1520	137.36247218126
11	379162	1540	144.57634075929
11	384501	1560	232.26933699354
11	389767	1580	325.24270596491
11	395104	1600	184.43546097371
11	400459	1620	227.00012834437
11	405839	1640	90.426149924771
11	411284	1660	134.74841484064
11	416538	1680	138.01536401659
11	421895	1700	322.55313585926
11	427212	1720	328.7005003198
11	432499	1740	89.820613177107
11	437810	1760	90.288788826391
11	443236	1780	230.1599035847
11	448577	1800	93.286598593818
11	453439	1820	232.80372339099
11	457688	1840	139.42529305964
11	461527	1860	273.73492902632
11	464914	1880	52.182356965416
11	467864	1900	0
11	470411	1920	48.101932895522
11	472510	1940	91.95255703912
11	474108	1960	94.908941078827
11	475125	1980	50.899600159861
11	475742	2000	0
12	34552	240	46.094992255788
12	39906	260	48.330124600305
12	45296	280	45.98717006683
12	50585	300	nan
12	55875	320	45.965151596442
12	61157	340	45.112596859436
12	66457	360	46.66284761878
12	71826	380	45.090959508671
12	77205	400	46.048423062402
12	82463	420	47.050092671052
12	87829	440	44.828575451235
12	93184	460	45.457169395314
12	98447	480	45.838318312346
12	103673	500	46.42353020276
12	109016	520	46.652251849942
12	114276	540	46.247985067938
12	119658	560	46.029219171889
12	124948	580	45.448801125756
12	130296	600	45.246390218356
12	135610	620	46.150922815419
12	140850	640	47.296661100748
12	146157	660	45.615050886132
12	151403	680	45.396292621517
12	156610	700	46.233552865824
12	161846	720	45.992976358317
12	167127	740	46.021587403558
12	172348	760	nan
12	177593	780	46.728852353187
12	182908	800	45.801011864661
12	188198	820	46.347388587654
12	193548	840	46.160781105891
12	198738	860	46.141175021707
12	204081	880	47.458932118894
12	209426	900	45.215182453272
12	214753	920	45.8248466291
12	219979	940	47.263416788383
12	225333	960	45.545562426657
12	230581	980	44.853497202636
12	235936	1000	45.881053594577
12	241258	1020	46.593020983322
12	246568	1040	46.686292420823
12	251972	1060	45.748874810026
12	257314	1080	46.614458347217
12	262497	1100	51.335730938908
12	267955	1120	48.026656023959
12	273255	1140	45.688308035956
12	278564	1160	46.058728283719
12	283926	1180	45.753695593311
12	289306	1200	47.477957309169
12	294590	1220	49.680510176427
12	299838	1240	44.597720830647
12	305152	1260	45.133982380913
12	310406	1280	46.200238266655
12	315660	1300	46.86108520269
12	320991	1320	45.948103195694
12	326345	1340	45.210290359959
12	331602	1360	45.974410554833
12	336878	1380	45.977453256284
12	342190	1400	46.320405837248
12	347492	1420	48.066821537747
12	352719	1440	nan
12	357966	1460	45.438615180713
12	363321	1480	47.621980307504
12	368520	1500	45.987901279012
12	373768	1520	45.787490727087
12	379162	1540	48.19211358643
12	384501	1560	46.453867398707
12	389767	1580	46.463243709272
12	395104	1600	46.108865243426
12	400459	1620	45.400025668875
12	405839	1640	45.213074962386
12	411284	1660	44.916138280213
12	416538	1680	46.005121338865
12	421895	1700	46.079019408465
12	427212	1720	46.9572143314
12	432499	1740	44.910306588553
12	437810	1760	45.144394413196
12	443236	1780	46.031980716939
12	448577	1800	46.643299296909
12	453439	1820	46.560744678198
12	457688	1840	46.475097686547
12	461527	1860	45.622488171053
12	464914	1880	52.182356965416
12	467864	1900	nan
12	470411	1920	48.101932895522
12	472510	1940	45.97627851956
12	474108	1960	47.454470539414
12	475125	1980	50.899600159861
12	475742	2000	nan
13	34552	240	0.70354288149498
13	39906	260	3.8446182340578
13	45296	280	1.5438737391116
13	50585	300	nan
13	55875	320	1.1771727283076
13	61157	340	0.76607592075073
13	66457	360	1.2395925532393
13	71826	380	0.97912478657164
13	77205	400	0.46056966038737
13	82463	420	0.70795993628696
13	87829	440	0.86538935861299
13	93184	460	0.81935343916056
13	98447	480	1.4601429463272
13	103673	500	1.4358403787628
13	109016	520	2.0189319331913
13	114276	540	1.0718700335627
13	119658	560	1.4422167799725
13	124948	580	1.013529689378
13	130296	600	0.54313591958602
13	135610	620	0.45051873087864
13	140850	640	1.9633107060032
13	146157	660	1.1070984119053
13	151403	680	0.58585946394529
13	156610	700	1.4021658967181
13	161846	720	1.6745359344411
13	167127	740	0.48788286606619
13	172348	760	nan
13	177593	780	1.0217582403855
13	182908	800	1.4310236385797
13	188198	820	0.83809964636808
13	193548	840	2.3097684271127
13	198738	860	0.55487810205764
13	204081	880	3.6425642840788
13	209426	900	0.6074901692862
13	214753	920	1.8514001066946
13	219979	940	3.4419427520014
13	225333	960	0.19580357319467
13	230581	980	nan
13	235936	1000	nan
13	241258	1020	1.0233626994988
13	246568	1040	nan
13	251972	1060	0.86867023184324
13	257314	1080	0.95592007652488
13	262497	1100	nan
13	267955	1120	3.0156590683732
13	273255	1140	1.2303212725903
13	278564	1160	0.88342344221177
13	283926	1180	1.2235429590551
13	289306	1200	1.5477789579229
13	294590	1220	0.89651091276515
13	299838	1240	nan
13	305152	1260	0.21333845739206
13	310406	1280	1.856768051511
13	315660	1300	1.8738132646679
13	320991	1320	0.91021256720275
13	326345	1340	1.002109709572
13	331602	1360	0.59224470356328
13	336878	1380	nan
13	342190	1400	0.96902369022088
13	347492	1420	2.4737135843246
13	352719	1440	nan