version 2
run statisticRVV-58-20150325-02:17:43-4548
attr c 11
attr configname statisticRVV
attr datetime 20150325-02:17:43
attr experiment statisticRVV
attr inifile omnetpp.ini
attr iterationvars "$sc=\"erlangen-low.launchd.xml\", $p=1/10, $c=11"
attr iterationvars2 "$sc=\"erlangen-low.launchd.xml\", $p=1/10, $c=11, $repetition=8"
attr measurement "$sc=\"erlangen-low.launchd.xml\", $p=1/10, $c=11"
attr network RSUExampleScenario
attr p 1/10
attr processid 4548
attr repetition 8
attr replication #8
attr resultdir results
attr runnumber 58
attr sc "\"erlangen-low.launchd.xml\""
attr seedset 58

vector 0  RSUExampleScenario.rsu[0].appl  Number_CH  ETV
vector 1  RSUExampleScenario.rsu[0].appl  Number_ON  ETV
vector 2  RSUExampleScenario.rsu[0].appl  Number_FN  ETV
vector 3  RSUExampleScenario.rsu[0].appl  Number_CH_Losts  ETV
vector 4  RSUExampleScenario.rsu[0].appl  Mean_Cluster_Size  ETV
vector 5  RSUExampleScenario.rsu[0].appl  StdDev_Cluster_Size  ETV
vector 6  RSUExampleScenario.rsu[0].appl  Variance_Cluster_Size  ETV
vector 7  RSUExampleScenario.rsu[0].appl  Mean_Neighbors  ETV
vector 8  RSUExampleScenario.rsu[0].appl  StdDev_Neighbors  ETV
vector 9  RSUExampleScenario.rsu[0].appl  Variance_Neighbors  ETV
vector 10  RSUExampleScenario.rsu[0].appl  Total_CH_Utility  ETV
vector 11  RSUExampleScenario.rsu[0].appl  Mean_CH_Utility  ETV
vector 12  RSUExampleScenario.rsu[0].appl  StdDev_CH_Utility  ETV
vector 13  RSUExampleScenario.rsu[0].appl  Variance_CH_Utility  ETV
vector 14  RSUExampleScenario.rsu[0].appl  Total_exp_CH_Utility  ETV
vector 15  RSUExampleScenario.rsu[0].appl  Mean_exp_CH_Utility  ETV
vector 16  RSUExampleScenario.rsu[0].appl  StdDev_exp_CH_Utility  ETV
vector 17  RSUExampleScenario.rsu[0].appl  Variance_exp_CH_Utility  ETV
vector 18  RSUExampleScenario.rsu[0].appl  Total_ON_Utility  ETV
vector 19  RSUExampleScenario.rsu[0].appl  Mean_ON_Utility  ETV
vector 20  RSUExampleScenario.rsu[0].appl  StdDev_ON_Utility  ETV
vector 21  RSUExampleScenario.rsu[0].appl  Variance_ON_Utility  ETV
vector 22  RSUExampleScenario.rsu[0].appl  Total_exp_ON_Utility  ETV
vector 23  RSUExampleScenario.rsu[0].appl  Mean_exp_ON_Utility  ETV
vector 24  RSUExampleScenario.rsu[0].appl  StdDev_exp_ON_Utility  ETV
vector 25  RSUExampleScenario.rsu[0].appl  Variance_exp_ON_Utility  ETV
0	34422	240	4
0	39827	260	7
0	45184	280	5
0	50554	300	3
0	56000	320	2
0	61262	340	6
0	66485	360	2
0	71752	380	4
0	77095	400	3
0	82272	420	3
0	87540	440	4
0	92953	460	2
0	98191	480	2
0	103413	500	2
0	108745	520	5
0	114092	540	1
0	119329	560	4
0	124775	580	3
0	130244	600	2
0	135438	620	2
0	140805	640	4
0	146007	660	5
0	151294	680	3
0	156650	700	1
0	162054	720	4
0	167417	740	3
0	172729	760	1
0	178027	780	1
0	183281	800	3
0	188614	820	2
0	193949	840	3
0	199332	860	3
0	204688	880	0
0	209967	900	4
0	215272	920	2
0	220574	940	3
0	225871	960	2
0	231090	980	6
0	236392	1000	0
0	241644	1020	4
0	246853	1040	3
0	252145	1060	1
0	257458	1080	4
0	262792	1100	4
0	268159	1120	0
0	273458	1140	3
0	278734	1160	2
0	284004	1180	2
0	289239	1200	5
0	294607	1220	2
0	299926	1240	4
0	305252	1260	3
0	310524	1280	2
0	315778	1300	5
0	321050	1320	5
0	326408	1340	3
0	331757	1360	5
0	337196	1380	2
0	342524	1400	0
0	347892	1420	5
0	353156	1440	4
0	358425	1460	1
0	363780	1480	3
0	369214	1500	3
0	374543	1520	6
0	379897	1540	5
0	385307	1560	8
0	390587	1580	2
0	395814	1600	2
0	401116	1620	3
0	406475	1640	1
0	411830	1660	1
0	417190	1680	3
0	422576	1700	1
0	427988	1720	1
0	433273	1740	3
0	438659	1760	1
0	443961	1780	6
0	449268	1800	2
0	454122	1820	0
0	458479	1840	1
0	462223	1860	1
0	465575	1880	2
0	468430	1900	1
0	470880	1920	4
0	472863	1940	3
0	474402	1960	0
0	475481	1980	0
0	476126	2000	0
1	34422	240	7
1	39827	260	12
1	45184	280	9
1	50554	300	4
1	56000	320	4
1	61262	340	6
1	66485	360	2
1	71752	380	5
1	77095	400	3
1	82272	420	3
1	87540	440	6
1	92953	460	2
1	98191	480	2
1	103413	500	3
1	108745	520	6
1	114092	540	1
1	119329	560	5
1	124775	580	4
1	130244	600	3
1	135438	620	4
1	140805	640	6
1	146007	660	6
1	151294	680	5
1	156650	700	2
1	162054	720	7
1	167417	740	3
1	172729	760	1
1	178027	780	2
1	183281	800	4
1	188614	820	3
1	193949	840	3
1	199332	860	6
1	204688	880	0
1	209967	900	5
1	215272	920	3
1	220574	940	5
1	225871	960	3
1	231090	980	6
1	236392	1000	0
1	241644	1020	5
1	246853	1040	4
1	252145	1060	1
1	257458	1080	6
1	262792	1100	6
1	268159	1120	0
1	273458	1140	3
1	278734	1160	3
1	284004	1180	3
1	289239	1200	6
1	294607	1220	3
1	299926	1240	5
1	305252	1260	4
1	310524	1280	4
1	315778	1300	6
1	321050	1320	8
1	326408	1340	4
1	331757	1360	5
1	337196	1380	2
1	342524	1400	0
1	347892	1420	7
1	353156	1440	5
1	358425	1460	1
1	363780	1480	3
1	369214	1500	4
1	374543	1520	9
1	379897	1540	7
1	385307	1560	13
1	390587	1580	2
1	395814	1600	2
1	401116	1620	5
1	406475	1640	1
1	411830	1660	1
1	417190	1680	5
1	422576	1700	2
1	427988	1720	2
1	433273	1740	3
1	438659	1760	1
1	443961	1780	9
1	449268	1800	3
1	454122	1820	0
1	458479	1840	1
1	462223	1860	2
1	465575	1880	3
1	468430	1900	1
1	470880	1920	5
1	472863	1940	4
1	474402	1960	0
1	475481	1980	0
1	476126	2000	0
2	34422	240	29
2	39827	260	23
2	45184	280	25
2	50554	300	34
2	56000	320	35
2	61262	340	29
2	66485	360	36
2	71752	380	31
2	77095	400	34
2	82272	420	34
2	87540	440	30
2	92953	460	37
2	98191	480	36
2	103413	500	35
2	108745	520	31
2	114092	540	39
2	119329	560	31
2	124775	580	34
2	130244	600	35
2	135438	620	33
2	140805	640	30
2	146007	660	29
2	151294	680	33
2	156650	700	39
2	162054	720	30
2	167417	740	34
2	172729	760	38
2	178027	780	37
2	183281	800	34
2	188614	820	36
2	193949	840	34
2	199332	860	32
2	204688	880	40
2	209967	900	32
2	215272	920	37
2	220574	940	33
2	225871	960	35
2	231090	980	28
2	236392	1000	39
2	241644	1020	30
2	246853	1040	33
2	252145	1060	38
2	257458	1080	30
2	262792	1100	31
2	268159	1120	40
2	273458	1140	34
2	278734	1160	36
2	284004	1180	35
2	289239	1200	29
2	294607	1220	35
2	299926	1240	32
2	305252	1260	33
2	310524	1280	35
2	315778	1300	29
2	321050	1320	28
2	326408	1340	34
2	331757	1360	31
2	337196	1380	37
2	342524	1400	39
2	347892	1420	29
2	353156	1440	30
2	358425	1460	39
2	363780	1480	36
2	369214	1500	34
2	374543	1520	25
2	379897	1540	29
2	385307	1560	20
2	390587	1580	37
2	395814	1600	36
2	401116	1620	33
2	406475	1640	39
2	411830	1660	38
2	417190	1680	33
2	422576	1700	38
2	427988	1720	38
2	433273	1740	35
2	438659	1760	38
2	443961	1780	26
2	449268	1800	35
2	454122	1820	37
2	458479	1840	32
2	462223	1860	28
2	465575	1880	22
2	468430	1900	21
2	470880	1920	11
2	472863	1940	10
2	474402	1960	14
2	475481	1980	11
2	476126	2000	8
3	34422	240	4
3	39827	260	0
3	45184	280	0
3	50554	300	2
3	56000	320	1
3	61262	340	1
3	66485	360	1
3	71752	380	1
3	77095	400	4
3	82272	420	0
3	87540	440	2
3	92953	460	1
3	98191	480	1
3	103413	500	3
3	108745	520	4
3	114092	540	0
3	119329	560	1
3	124775	580	2
3	130244	600	1
3	135438	620	2
3	140805	640	2
3	146007	660	2
3	151294	680	1
3	156650	700	0
3	162054	720	0
3	167417	740	0
3	172729	760	2
3	178027	780	1
3	183281	800	1
3	188614	820	3
3	193949	840	1
3	199332	860	0
3	204688	880	0
3	209967	900	0
3	215272	920	0
3	220574	940	3
3	225871	960	2
3	231090	980	1
3	236392	1000	0
3	241644	1020	3
3	246853	1040	0
3	252145	1060	0
3	257458	1080	0
3	262792	1100	1
3	268159	1120	3
3	273458	1140	2
3	278734	1160	0
3	284004	1180	2
3	289239	1200	2
3	294607	1220	2
3	299926	1240	1
3	305252	1260	1
3	310524	1280	2
3	315778	1300	3
3	321050	1320	2
3	326408	1340	0
3	331757	1360	1
3	337196	1380	4
3	342524	1400	3
3	347892	1420	1
3	353156	1440	0
3	358425	1460	0
3	363780	1480	1
3	369214	1500	0
3	374543	1520	2
3	379897	1540	2
3	385307	1560	0
3	390587	1580	1
3	395814	1600	1
3	401116	1620	1
3	406475	1640	1
3	411830	1660	0
3	417190	1680	0
3	422576	1700	0
3	427988	1720	1
3	433273	1740	1
3	438659	1760	0
3	443961	1780	3
3	449268	1800	1
3	454122	1820	2
3	458479	1840	1
3	462223	1860	0
3	465575	1880	1
3	468430	1900	2
3	470880	1920	0
3	472863	1940	0
3	474402	1960	0
3	475481	1980	0
3	476126	2000	0
4	34422	240	1.75
4	39827	260	1.7142857142857
4	45184	280	1.8
4	50554	300	1.3333333333333
4	56000	320	2
4	61262	340	1
4	66485	360	1
4	71752	380	1.25
4	77095	400	1
4	82272	420	1
4	87540	440	1.5
4	92953	460	1
4	98191	480	1
4	103413	500	1.5
4	108745	520	1.2
4	114092	540	1
4	119329	560	1.25
4	124775	580	1.3333333333333
4	130244	600	1.5
4	135438	620	2
4	140805	640	1.5
4	146007	660	1.2
4	151294	680	1.6666666666667
4	156650	700	2
4	162054	720	1.75
4	167417	740	1
4	172729	760	1
4	178027	780	2
4	183281	800	1.3333333333333
4	188614	820	1.5
4	193949	840	1
4	199332	860	2
4	204688	880	nan
4	209967	900	1.25
4	215272	920	1.5
4	220574	940	1.6666666666667
4	225871	960	1.5
4	231090	980	1
4	236392	1000	nan
4	241644	1020	1.25
4	246853	1040	1.3333333333333
4	252145	1060	1
4	257458	1080	1.5
4	262792	1100	1.5
4	268159	1120	nan
4	273458	1140	1
4	278734	1160	1.5
4	284004	1180	1.5
4	289239	1200	1.2
4	294607	1220	1.5
4	299926	1240	1.25
4	305252	1260	1.3333333333333
4	310524	1280	2
4	315778	1300	1.2
4	321050	1320	1.6
4	326408	1340	1.3333333333333
4	331757	1360	1
4	337196	1380	1
4	342524	1400	nan
4	347892	1420	1.4
4	353156	1440	1.25
4	358425	1460	1
4	363780	1480	1
4	369214	1500	1.3333333333333
4	374543	1520	1.5
4	379897	1540	1.4
4	385307	1560	1.625
4	390587	1580	1
4	395814	1600	1
4	401116	1620	1.6666666666667
4	406475	1640	1
4	411830	1660	1
4	417190	1680	1.6666666666667
4	422576	1700	2
4	427988	1720	2
4	433273	1740	1
4	438659	1760	1
4	443961	1780	1.5
4	449268	1800	1.5
4	454122	1820	nan
4	458479	1840	1
4	462223	1860	2
4	465575	1880	1.5
4	468430	1900	1
4	470880	1920	1.25
4	472863	1940	1.3333333333333
4	474402	1960	nan
4	475481	1980	nan
4	476126	2000	nan
5	34422	240	0.5
5	39827	260	0.48795003647427
5	45184	280	0.44721359549996
5	50554	300	0.57735026918963
5	56000	320	0
5	61262	340	0
5	66485	360	0
5	71752	380	0.5
5	77095	400	0
5	82272	420	0
5	87540	440	0.57735026918963
5	92953	460	0
5	98191	480	0
5	103413	500	0.70710678118655
5	108745	520	0.44721359549996
5	114092	540	nan
5	119329	560	0.5
5	124775	580	0.57735026918963
5	130244	600	0.70710678118655
5	135438	620	0
5	140805	640	0.57735026918963
5	146007	660	0.44721359549996
5	151294	680	0.57735026918963
5	156650	700	nan
5	162054	720	0.5
5	167417	740	0
5	172729	760	nan
5	178027	780	nan
5	183281	800	0.57735026918963
5	188614	820	0.70710678118655
5	193949	840	0
5	199332	860	0
5	204688	880	nan
5	209967	900	0.5
5	215272	920	0.70710678118655
5	220574	940	0.57735026918963
5	225871	960	0.70710678118655
5	231090	980	0
5	236392	1000	nan
5	241644	1020	0.5
5	246853	1040	0.57735026918963
5	252145	1060	nan
5	257458	1080	0.57735026918963
5	262792	1100	1
5	268159	1120	nan
5	273458	1140	0
5	278734	1160	0.70710678118655
5	284004	1180	0.70710678118655
5	289239	1200	0.44721359549996
5	294607	1220	0.70710678118655
5	299926	1240	0.5
5	305252	1260	0.57735026918963
5	310524	1280	0
5	315778	1300	0.44721359549996
5	321050	1320	0.54772255750517
5	326408	1340	0.57735026918963
5	331757	1360	0
5	337196	1380	0
5	342524	1400	nan
5	347892	1420	0.54772255750517
5	353156	1440	0.5
5	358425	1460	nan
5	363780	1480	0
5	369214	1500	0.57735026918963
5	374543	1520	0.54772255750517
5	379897	1540	0.54772255750517
5	385307	1560	0.51754916950677
5	390587	1580	0
5	395814	1600	0
5	401116	1620	0.57735026918963
5	406475	1640	nan
5	411830	1660	nan
5	417190	1680	0.57735026918963
5	422576	1700	nan
5	427988	1720	nan
5	433273	1740	0
5	438659	1760	nan
5	443961	1780	0.54772255750517
5	449268	1800	0.70710678118655
5	454122	1820	nan
5	458479	1840	nan
5	462223	1860	nan
5	465575	1880	0.70710678118655
5	468430	1900	nan
5	470880	1920	0.5
5	472863	1940	0.57735026918963
5	474402	1960	nan
5	475481	1980	nan
5	476126	2000	nan
6	34422	240	0.25
6	39827	260	0.23809523809524
6	45184	280	0.2
6	50554	300	0.33333333333333
6	56000	320	0
6	61262	340	0
6	66485	360	0
6	71752	380	0.25
6	77095	400	0
6	82272	420	0
6	87540	440	0.33333333333333
6	92953	460	0
6	98191	480	0
6	103413	500	0.5
6	108745	520	0.2
6	114092	540	nan
6	119329	560	0.25
6	124775	580	0.33333333333333
6	130244	600	0.5
6	135438	620	0
6	140805	640	0.33333333333333
6	146007	660	0.2
6	151294	680	0.33333333333333
6	156650	700	nan
6	162054	720	0.25
6	167417	740	0
6	172729	760	nan
6	178027	780	nan
6	183281	800	0.33333333333333
6	188614	820	0.5
6	193949	840	0
6	199332	860	0
6	204688	880	nan
6	209967	900	0.25
6	215272	920	0.5
6	220574	940	0.33333333333333
6	225871	960	0.5
6	231090	980	0
6	236392	1000	nan
6	241644	1020	0.25
6	246853	1040	0.33333333333333
6	252145	1060	nan
6	257458	1080	0.33333333333333
6	262792	1100	1
6	268159	1120	nan
6	273458	1140	0
6	278734	1160	0.5
6	284004	1180	0.5
6	289239	1200	0.2
6	294607	1220	0.5
6	299926	1240	0.25
6	305252	1260	0.33333333333333
6	310524	1280	0
6	315778	1300	0.2
6	321050	1320	0.3
6	326408	1340	0.33333333333333
6	331757	1360	0
6	337196	1380	0
6	342524	1400	nan
6	347892	1420	0.3
6	353156	1440	0.25
6	358425	1460	nan
6	363780	1480	0
6	369214	1500	0.33333333333333
6	374543	1520	0.3
6	379897	1540	0.3
6	385307	1560	0.26785714285714
6	390587	1580	0
6	395814	1600	0
6	401116	1620	0.33333333333333
6	406475	1640	nan
6	411830	1660	nan
6	417190	1680	0.33333333333333
6	422576	1700	nan
6	427988	1720	nan
6	433273	1740	0
6	438659	1760	nan
6	443961	1780	0.3
6	449268	1800	0.5
6	454122	1820	nan
6	458479	1840	nan
6	462223	1860	nan
6	465575	1880	0.5
6	468430	1900	nan
6	470880	1920	0.25
6	472863	1940	0.33333333333333
6	474402	1960	nan
6	475481	1980	nan
6	476126	2000	nan
7	34422	240	8.875
7	39827	260	8.9512195121951
7	45184	280	9.2307692307692
7	50554	300	8.9268292682927
7	56000	320	9.05
7	61262	340	9
7	66485	360	8.725
7	71752	380	9
7	77095	400	9.05
7	82272	420	8.875
7	87540	440	8.725
7	92953	460	8.8048780487805
7	98191	480	8.95
7	103413	500	8.75
7	108745	520	8.6190476190476
7	114092	540	9.0243902439024
7	119329	560	9.075
7	124775	580	8.9512195121951
7	130244	600	9.125
7	135438	620	9.0769230769231
7	140805	640	9
7	146007	660	8.974358974359
7	151294	680	8.780487804878
7	156650	700	9.0243902439024
7	162054	720	9.1707317073171
7	167417	740	9.3333333333333
7	172729	760	8.975
7	178027	780	9.1
7	183281	800	9.0731707317073
7	188614	820	9.075
7	193949	840	9.225
7	199332	860	9.025
7	204688	880	9
7	209967	900	8.7560975609756
7	215272	920	8.7073170731707
7	220574	940	8.9
7	225871	960	9
7	231090	980	8.825
7	236392	1000	8.974358974359
7	241644	1020	8.974358974359
7	246853	1040	9
7	252145	1060	8.975
7	257458	1080	8.675
7	262792	1100	8.8780487804878
7	268159	1120	9.1794871794872
7	273458	1140	8.975
7	278734	1160	8.8
7	284004	1180	9.175
7	289239	1200	8.875
7	294607	1220	8.95
7	299926	1240	8.6585365853659
7	305252	1260	8.75
7	310524	1280	9.175
7	315778	1300	8.925
7	321050	1320	8.9756097560976
7	326408	1340	9.0487804878049
7	331757	1360	9.025
7	337196	1380	9.125
7	342524	1400	8.9230769230769
7	347892	1420	8.8536585365854
7	353156	1440	8.8717948717949
7	358425	1460	9.05
7	363780	1480	8.9512195121951
7	369214	1500	9.1219512195122
7	374543	1520	9.3589743589744
7	379897	1540	8.780487804878
7	385307	1560	9.1463414634146
7	390587	1580	8.9268292682927
7	395814	1600	8.95
7	401116	1620	8.9512195121951
7	406475	1640	9.1
7	411830	1660	9.4615384615385
7	417190	1680	9.025
7	422576	1700	8.75
7	427988	1720	8.8048780487805
7	433273	1740	8.9024390243902
7	438659	1760	9
7	443961	1780	9.0731707317073
7	449268	1800	9.025
7	454122	1820	9
7	458479	1840	8.3235294117647
7	462223	1860	8.1612903225806
7	465575	1880	8.2962962962963
7	468430	1900	8.0434782608696
7	470880	1920	8
7	472863	1940	7.8235294117647
7	474402	1960	7.2857142857143
7	475481	1980	6.9090909090909
7	476126	2000	5.625
8	34422	240	2.0151668506348
8	39827	260	2.0609611776086
8	45184	280	1.6616659120409
8	50554	300	1.6184907151794
8	56000	320	1.6478424121816
8	61262	340	1.5329709716756
8	66485	360	1.5019218457594
8	71752	380	1.8397324220156
8	77095	400	1.2999013769296
8	82272	420	1.5719904090528
8	87540	440	1.5522935884089
8	92953	460	1.8332963780459
8	98191	480	1.6938803881121
8	103413	500	1.4978617237882
8	108745	520	1.9500141456945
8	114092	540	1.9168699079234
8	119329	560	1.7886752009124
8	124775	580	1.6575768385236
8	130244	600	1.9373190568941
8	135438	620	1.5284084495527
8	140805	640	1.4675987714107
8	146007	660	1.4776791811767
8	151294	680	1.7820240615933
8	156650	700	1.3320624024055
8	162054	720	1.9222699995629
8	167417	740	1.6113631583446
8	172729	760	1.4760915126936
8	178027	780	1.6455067024149
8	183281	800	1.9671075708059
8	188614	820	1.3471241923979
8	193949	840	1.5104337974272
8	199332	860	1.8740809713509
8	204688	880	1.4322297480789
8	209967	900	1.8944720610882
8	215272	920	2.1005225830615
8	220574	940	1.6610160622265
8	225871	960	1.5851878478024
8	231090	980	1.6623662467885
8	236392	1000	1.4953820051848
8	241644	1020	1.5301733559716
8	246853	1040	2.0754980866511
8	252145	1060	1.5273153923445
8	257458	1080	1.9133471812239
8	262792	1100	2.0999419271877
8	268159	1120	2.125927597814
8	273458	1140	1.9012479032845
8	278734	1160	1.5721942856387
8	284004	1180	1.7377778324262
8	289239	1200	1.4176090379986
8	294607	1220	1.678674690924
8	299926	1240	1.8922176948961
8	305252	1260	2.0724072463857
8	310524	1280	1.7670415664143
8	315778	1300	2.0049617938684
8	321050	1320	1.8369513450014
8	326408	1340	1.6725910963561
8	331757	1360	1.6090688500193
8	337196	1380	1.6974717247749
8	342524	1400	1.3055471808003
8	347892	1420	1.7401289551317
8	353156	1440	1.6729974231504
8	358425	1460	1.7679482531005
8	363780	1480	1.5321752431134
8	369214	1500	2.0272533382784
8	374543	1520	1.6461626748158
8	379897	1540	1.8098645684408
8	385307	1560	1.9692762072619
8	390587	1580	2.2515577263579
8	395814	1600	1.3950461806528
8	401116	1620	1.92290430745
8	406475	1640	1.836942833721
8	411830	1660	1.4481595188041
8	417190	1680	1.4230249470758
8	422576	1700	1.6447273953845
8	427988	1720	1.8870547447692
8	433273	1740	1.6704023175388
8	438659	1760	1.8946618668627
8	443961	1780	2.0662797959429
8	449268	1800	1.6249260338196
8	454122	1820	1.3123346456686
8	458479	1840	1.8540796660876
8	462223	1860	1.7145801078505
8	465575	1880	1.6128048862586
8	468430	1900	1.7183041552532
8	470880	1920	1.9466570535692
8	472863	1940	1.9440709258424
8	474402	1960	1.58980266935
8	475481	1980	1.7002673586554
8	476126	2000	0.74402380914284
9	34422	240	4.0608974358974
9	39827	260	4.2475609756098
9	45184	280	2.7611336032389
9	50554	300	2.619512195122
9	56000	320	2.7153846153846
9	61262	340	2.35
9	66485	360	2.2557692307692
9	71752	380	3.3846153846154
9	77095	400	1.6897435897436
9	82272	420	2.4711538461538
9	87540	440	2.4096153846154
9	92953	460	3.3609756097561
9	98191	480	2.8692307692308
9	103413	500	2.2435897435897
9	108745	520	3.8025551684088
9	114092	540	3.6743902439024
9	119329	560	3.199358974359
9	124775	580	2.7475609756098
9	130244	600	3.7532051282051
9	135438	620	2.336032388664
9	140805	640	2.1538461538462
9	146007	660	2.1835357624831
9	151294	680	3.1756097560976
9	156650	700	1.7743902439024
9	162054	720	3.6951219512195
9	167417	740	2.5964912280702
9	172729	760	2.1788461538462
9	178027	780	2.7076923076923
9	183281	800	3.869512195122
9	188614	820	1.8147435897436
9	193949	840	2.2814102564103
9	199332	860	3.5121794871795
9	204688	880	2.0512820512821
9	209967	900	3.5890243902439
9	215272	920	4.4121951219512
9	220574	940	2.7589743589744
9	225871	960	2.5128205128205
9	231090	980	2.7634615384615
9	236392	1000	2.2361673414305
9	241644	1020	2.3414304993252
9	246853	1040	4.3076923076923
9	252145	1060	2.3326923076923
9	257458	1080	3.6608974358974
9	262792	1100	4.409756097561
9	268159	1120	4.5195681511471
9	273458	1140	3.6147435897436
9	278734	1160	2.4717948717949
9	284004	1180	3.0198717948718
9	289239	1200	2.0096153846154
9	294607	1220	2.8179487179487
9	299926	1240	3.580487804878
9	305252	1260	4.2948717948718
9	310524	1280	3.1224358974359
9	315778	1300	4.0198717948718
9	321050	1320	3.3743902439024
9	326408	1340	2.7975609756098
9	331757	1360	2.5891025641026
9	337196	1380	2.8814102564103
9	342524	1400	1.7044534412955
9	347892	1420	3.0280487804878
9	353156	1440	2.7989203778677
9	358425	1460	3.125641025641
9	363780	1480	2.3475609756098
9	369214	1500	4.109756097561
9	374543	1520	2.7098515519568
9	379897	1540	3.2756097560976
9	385307	1560	3.8780487804878
9	390587	1580	5.069512195122
9	395814	1600	1.9461538461538
9	401116	1620	3.6975609756098
9	406475	1640	3.374358974359
9	411830	1660	2.0971659919028
9	417190	1680	2.025
9	422576	1700	2.7051282051282
9	427988	1720	3.5609756097561
9	433273	1740	2.790243902439
9	438659	1760	3.5897435897436
9	443961	1780	4.269512195122
9	449268	1800	2.6403846153846
9	454122	1820	1.7222222222222
9	458479	1840	3.4376114081996
9	462223	1860	2.9397849462366
9	465575	1880	2.6011396011396
9	468430	1900	2.9525691699605
9	470880	1920	3.7894736842105
9	472863	1940	3.7794117647059
9	474402	1960	2.5274725274725
9	475481	1980	2.8909090909091
9	476126	2000	0.55357142857143
10	34422	240	186.4009247107
10	39827	260	327.45177101068
10	45184	280	233.25541164951
10	50554	300	140.03202409054
10	56000	320	92.264748279772
10	61262	340	276.48001694169
10	66485	360	91.269357279973
10	71752	380	194.26202662948
10	77095	400	145.70338082402
10	82272	420	141.50338428559
10	87540	440	189.54353334583
10	92953	460	103.0574493577
10	98191	480	92.370934067254
10	103413	500	91.816130440017
10	108745	520	232.96101543242
10	114092	540	47.180459132604
10	119329	560	183.09282573717
10	124775	580	141.9964840097
10	130244	600	94.873253589753
10	135438	620	93.149890169827
10	140805	640	188.80916258439
10	146007	660	232.79946964351
10	151294	680	145.10819741336
10	156650	700	51.572780633348
10	162054	720	184.71255372588
10	167417	740	139.22329941254
10	172729	760	45.588173497497
10	178027	780	46.930586045119
10	183281	800	142.29258527384
10	188614	820	92.681006209642
10	193949	840	138.2821595113
10	199332	860	141.20100782718
10	204688	880	0
10	209967	900	185.78739728965
10	215272	920	95.694788962042
10	220574	940	141.57151725226
10	225871	960	91.988845217241
10	231090	980	276.04531343487
10	236392	1000	0
10	241644	1020	185.42465208566
10	246853	1040	140.52529390618
10	252145	1060	46.460926619087
10	257458	1080	188.3147653658
10	262792	1100	192.70180815178
10	268159	1120	0
10	273458	1140	136.8713176134
10	278734	1160	95.290322831457
10	284004	1180	100.66203024857
10	289239	1200	237.53832198449
10	294607	1220	92.69502290826
10	299926	1240	185.44955088169
10	305252	1260	142.06611637008
10	310524	1280	94.049071984754
10	315778	1300	234.83044006964
10	321050	1320	231.90145802733
10	326408	1340	138.65555785915
10	331757	1360	241.79927714854
10	337196	1380	94.419694986077
10	342524	1400	0
10	347892	1420	234.49292698529
10	353156	1440	190.55656874961
10	358425	1460	46.24190528198
10	363780	1480	139.30070326145
10	369214	1500	142.21730529763
10	374543	1520	279.21853747074
10	379897	1540	232.47785742402
10	385307	1560	377.88474089272
10	390587	1580	93.868176313859
10	395814	1600	99.299027604723
10	401116	1620	140.39367564097
10	406475	1640	47.508815707298
10	411830	1660	47.663636286394
10	417190	1680	138.68121567922
10	422576	1700	46.384641868168
10	427988	1720	46.764718565248
10	433273	1740	141.21397151712
10	438659	1760	49.399779256438
10	443961	1780	280.50495752403
10	449268	1800	93.081163816942
10	454122	1820	0
10	458479	1840	46.669506838632
10	462223	1860	46.51101699652
10	465575	1880	93.204309951266
10	468430	1900	44.827088654183
10	470880	1920	187.23703253485
10	472863	1940	136.99534628079
10	474402	1960	0
10	475481	1980	0
10	476126	2000	0
11	34422	240	46.600231177674
11	39827	260	46.778824430097
11	45184	280	46.651082329903
11	50554	300	46.677341363514
11	56000	320	46.132374139886
11	61262	340	46.080002823615
11	66485	360	45.634678639987
11	71752	380	48.565506657371
11	77095	400	48.567793608005
11	82272	420	47.167794761863
11	87540	440	47.385883336459
11	92953	460	51.528724678848
11	98191	480	46.185467033627
11	103413	500	45.908065220008
11	108745	520	46.592203086483
11	114092	540	47.180459132604
11	119329	560	45.773206434292
11	124775	580	47.332161336565
11	130244	600	47.436626794877
11	135438	620	46.574945084914
11	140805	640	47.202290646097
11	146007	660	46.559893928703
11	151294	680	48.369399137787
11	156650	700	51.572780633348
11	162054	720	46.17813843147
11	167417	740	46.407766470846
11	172729	760	45.588173497497
11	178027	780	46.930586045119
11	183281	800	47.430861757947
11	188614	820	46.340503104821
11	193949	840	46.094053170434
11	199332	860	47.067002609061
11	204688	880	nan
11	209967	900	46.446849322414
11	215272	920	47.847394481021
11	220574	940	47.190505750752
11	225871	960	45.99442260862
11	231090	980	46.007552239144
11	236392	1000	nan
11	241644	1020	46.356163021416
11	246853	1040	46.841764635392
11	252145	1060	46.460926619087
11	257458	1080	47.07869134145
11	262792	1100	48.175452037945
11	268159	1120	nan
11	273458	1140	45.623772537799
11	278734	1160	47.645161415729
11	284004	1180	50.331015124286
11	289239	1200	47.507664396897
11	294607	1220	46.34751145413
11	299926	1240	46.362387720421
11	305252	1260	47.355372123359
11	310524	1280	47.024535992377
11	315778	1300	46.966088013929
11	321050	1320	46.380291605465
11	326408	1340	46.218519286385
11	331757	1360	48.359855429709
11	337196	1380	47.209847493039
11	342524	1400	nan
11	347892	1420	46.898585397058
11	353156	1440	47.639142187402
11	358425	1460	46.24190528198
11	363780	1480	46.433567753816
11	369214	1500	47.405768432545
11	374543	1520	46.536422911791
11	379897	1540	46.495571484804
11	385307	1560	47.23559261159
11	390587	1580	46.934088156929
11	395814	1600	49.649513802362
11	401116	1620	46.797891880324
11	406475	1640	47.508815707298
11	411830	1660	47.663636286394
11	417190	1680	46.227071893073
11	422576	1700	46.384641868168
11	427988	1720	46.764718565248
11	433273	1740	47.071323839041
11	438659	1760	49.399779256438
11	443961	1780	46.750826254006
11	449268	1800	46.540581908471
11	454122	1820	nan
11	458479	1840	46.669506838632
11	462223	1860	46.51101699652
11	465575	1880	46.602154975633
11	468430	1900	44.827088654183
11	470880	1920	46.809258133713
11	472863	1940	45.66511542693
11	474402	1960	nan
11	475481	1980	nan
11	476126	2000	nan
12	34422	240	0.77093848783917
12	39827	260	0.96247717584618
12	45184	280	1.1877366795708
12	50554	300	0.99752603119269
12	56000	320	0.407309580336
12	61262	340	0.99402029239922
12	66485	360	1.0487051041257
12	71752	380	3.6437080751172
12	77095	400	4.0318310243106
12	82272	420	2.6524974030348
12	87540	440	0.47528474537887
12	92953	460	2.4502436906821
12	98191	480	0.44000907482657
12	103413	500	1.5511759134425
12	108745	520	2.1933719761745
12	114092	540	nan
12	119329	560	0.79336795000877
12	124775	580	1.9350845170107
12	130244	600	1.2479716888492
12	135438	620	1.7922321255725
12	140805	640	1.2047956517019
12	146007	660	1.01084582921
12	151294	680	2.1390153648237
12	156650	700	nan
12	162054	720	1.2587254432056
12	167417	740	0.83916692960754
12	172729	760	nan
12	178027	780	nan
12	183281	800	1.9049247988284
12	188614	820	0.33773189340114
12	193949	840	0.41111460294755
12	199332	860	0.56628427158299
12	204688	880	nan
12	209967	900	0.76573481434804
12	215272	920	0.8916755302192
12	220574	940	0.34197967823393
12	225871	960	0.96190222779997
12	231090	980	0.5463939389126
12	236392	1000	nan
12	241644	1020	0.92741503128484
12	246853	1040	0.68019047333856
12	252145	1060	nan
12	257458	1080	1.4226168774791
12	262792	1100	4.5134325893534
12	268159	1120	nan
12	273458	1140	0.38391252518738
12	278734	1160	1.4433808620611
12	284004	1180	7.076565082878
12	289239	1200	4.4810105978419
12	294607	1220	0.85873481892516
12	299926	1240	0.50944742245246
12	305252	1260	0.76409789074037
12	310524	1280	1.5182994722831
12	315778	1300	1.0080474915503
12	321050	1320	1.0685233940742
12	326408	1340	1.1354548320274
12	331757	1360	1.0479600362303
12	337196	1380	0.22519043774153
12	342524	1400	nan
12	347892	1420	1.1087600920125
12	353156	1440	1.6467560898369
12	358425	1460	nan
12	363780	1480	1.6355933108774
12	369214	1500	1.7356840681204
12	374543	1520	0.78545459071921
12	379897	1540	1.3685883645317
12	385307	1560	1.6524672595357
12	390587	1580	1.2191018596471
12	395814	1600	0.23547347836982
12	401116	1620	2.0563139360587
12	406475	1640	nan
12	411830	1660	nan
12	417190	1680	1.9694438111329
12	422576	1700	nan
12	427988	1720	nan
12	433273	1740	0.70063913413779
12	438659	1760	nan
12	443961	1780	1.7573961514604
12	449268	1800	1.6132754028698
12	454122	1820	nan
12	458479	1840	nan
12	462223	1860	nan
12	465575	1880	0.09711159280284
12	468430	1900	nan
12	470880	1920	1.7963486918919
12	472863	1940	4.4105789253326
12	474402	1960	nan
12	475481	1980	nan
12	476126	2000	nan
13	34422	240	0.59434615203174
13	39827	260	0.92636231402484
13	45184	280	1.4107184199979
13	50554	300	0.99505818290704
13	56000	320	0.16590109423349
13	61262	340	0.98807634170144
13	66485	360	1.0997823954192
13	71752	380	13.276608536674
13	77095	400	16.255661408593
13	82272	420	7.0357424731062
13	87540	440	0.22589558918986
13	92953	460	6.0036941437275
13	98191	480	0.19360798592974
13	103413	500	2.406146714444
13	108745	520	4.8108806258678
13	114092	540	nan
13	119329	560	0.62943270410113
13	124775	580	3.7445520879743
13	130244	600	1.5574333361692
13	135438	620	3.2120959919342
13	140805	640	1.4515325623597
13	146007	660	1.0218092904313
13	151294	680	4.5753867309519
13	156650	700	nan
13	162054	720	1.5843897413731
13	167417	740	0.70420113574695
13	172729	760	nan
13	178027	780	nan
13	183281	800	3.6287384891914
13	188614	820	0.11406283182032
13	193949	840	0.16901521675672
13	199332	860	0.32067787624228
13	204688	880	nan
13	209967	900	0.58634980590462
13	215272	920	0.7950852511917
13	220574	940	0.11695010032498
13	225871	960	0.92525589584654
13	231090	980	0.29854633648042
13	236392	1000	nan
13	241644	1020	0.86009864025306
13	246853	1040	0.46265908002053
13	252145	1060	nan
13	257458	1080	2.0238387800884
13	262792	1100	20.371073738638
13	268159	1120	nan
13	273458	1140	0.14738882699575
13	278734	1160	2.0833483129643
13	284004	1180	50.077773372208
13	289239	1200	20.079455977971
13	294607	1220	0.73742548923443
13	299926	1240	0.25953667624345
13	305252	1260	0.58384558663389
13	310524	1280	2.3052332875351
13	315778	1300	1.0161597452209
13	321050	1320	1.1417422436838
13	326408	1340	1.2892576755745
13	331757	1360	1.0982202375359
13	337196	1380	0.050710733250223
13	342524	1400	nan
13	347892	1420	1.2293489416395
13	353156	1440	2.7118056194149