version 2
run statisticRVV-18-20150327-01:40:43-13004
attr c 15
attr configname statisticRVV
attr datetime 20150327-01:40:43
attr experiment statisticRVV
attr inifile omnetpp.ini
attr iterationvars "$sc=\"erlangen-low.launchd.xml\", $p=1/15, $c=15"
attr iterationvars2 "$sc=\"erlangen-low.launchd.xml\", $p=1/15, $c=15, $repetition=8"
attr measurement "$sc=\"erlangen-low.launchd.xml\", $p=1/15, $c=15"
attr network RSUExampleScenario
attr p 1/15
attr processid 13004
attr repetition 8
attr replication #8
attr resultdir results
attr runnumber 18
attr sc "\"erlangen-low.launchd.xml\""
attr seedset 18

vector 0  RSUExampleScenario.rsu[0].appl  Number_CH  ETV
vector 1  RSUExampleScenario.rsu[0].appl  Number_ON  ETV
vector 2  RSUExampleScenario.rsu[0].appl  Number_FN  ETV
vector 3  RSUExampleScenario.rsu[0].appl  Number_CH_Losts  ETV
vector 4  RSUExampleScenario.rsu[0].appl  Number_CH_Losts  ETV
vector 5  RSUExampleScenario.rsu[0].appl  Mean_Cluster_Size  ETV
vector 6  RSUExampleScenario.rsu[0].appl  StdDev_Cluster_Size  ETV
vector 7  RSUExampleScenario.rsu[0].appl  Variance_Cluster_Size  ETV
vector 8  RSUExampleScenario.rsu[0].appl  Mean_Neighbors  ETV
vector 9  RSUExampleScenario.rsu[0].appl  StdDev_Neighbors  ETV
vector 10  RSUExampleScenario.rsu[0].appl  Variance_Neighbors  ETV
vector 11  RSUExampleScenario.rsu[0].appl  Total_CH_Utility  ETV
vector 12  RSUExampleScenario.rsu[0].appl  Mean_CH_Utility  ETV
vector 13  RSUExampleScenario.rsu[0].appl  StdDev_CH_Utility  ETV
vector 14  RSUExampleScenario.rsu[0].appl  Variance_CH_Utility  ETV
vector 15  RSUExampleScenario.rsu[0].appl  Total_exp_CH_Utility  ETV
vector 16  RSUExampleScenario.rsu[0].appl  Mean_exp_CH_Utility  ETV
vector 17  RSUExampleScenario.rsu[0].appl  StdDev_exp_CH_Utility  ETV
vector 18  RSUExampleScenario.rsu[0].appl  Variance_exp_CH_Utility  ETV
vector 19  RSUExampleScenario.rsu[0].appl  Total_ON_Utility  ETV
vector 20  RSUExampleScenario.rsu[0].appl  Mean_ON_Utility  ETV
vector 21  RSUExampleScenario.rsu[0].appl  StdDev_ON_Utility  ETV
vector 22  RSUExampleScenario.rsu[0].appl  Variance_ON_Utility  ETV
vector 23  RSUExampleScenario.rsu[0].appl  Total_exp_ON_Utility  ETV
vector 24  RSUExampleScenario.rsu[0].appl  Mean_exp_ON_Utility  ETV
vector 25  RSUExampleScenario.rsu[0].appl  StdDev_exp_ON_Utility  ETV
vector 26  RSUExampleScenario.rsu[0].appl  Variance_exp_ON_Utility  ETV
0	34380	240	2
0	39657	260	2
0	45045	280	3
0	50316	300	1
0	55659	320	4
0	60941	340	1
0	66201	360	3
0	71516	380	3
0	76766	400	4
0	82127	420	2
0	87530	440	3
0	92920	460	1
0	98077	480	2
0	103361	500	1
0	108687	520	2
0	113906	540	2
0	119138	560	0
0	124394	580	1
0	129682	600	5
0	135135	620	1
0	140476	640	2
0	145728	660	2
0	150921	680	2
0	156159	700	2
0	161399	720	3
0	166766	740	3
0	172123	760	3
0	177480	780	2
0	182712	800	1
0	188016	820	5
0	193279	840	2
0	198516	860	2
0	203911	880	2
0	209191	900	1
0	214566	920	2
0	219876	940	5
0	225270	960	0
0	230656	980	2
0	236033	1000	4
0	241299	1020	4
0	246602	1040	0
0	251883	1060	5
0	257143	1080	1
0	262349	1100	2
0	267728	1120	2
0	273009	1140	5
0	278271	1160	4
0	283634	1180	5
0	288876	1200	3
0	294106	1220	2
0	299391	1240	4
0	304781	1260	5
0	310146	1280	3
0	315468	1300	3
0	320720	1320	6
0	325988	1340	1
0	331392	1360	2
0	336780	1380	2
0	342194	1400	3
0	347573	1420	2
0	352878	1440	1
0	358326	1460	4
0	363675	1480	3
0	369018	1500	5
0	374349	1520	2
0	379682	1540	3
0	384975	1560	2
0	390218	1580	3
0	395533	1600	1
0	400919	1620	5
0	406366	1640	1
0	411758	1660	5
0	417040	1680	1
0	422343	1700	6
0	427495	1720	3
0	432715	1740	4
0	438015	1760	3
0	443417	1780	3
0	448807	1800	4
0	453652	1820	1
0	457924	1840	2
0	461664	1860	5
0	464958	1880	2
0	467896	1900	0
0	470395	1920	3
0	472456	1940	0
0	474049	1960	1
0	475173	1980	1
0	475739	2000	1
1	34380	240	7
1	39657	260	7
1	45045	280	7
1	50316	300	2
1	55659	320	14
1	60941	340	6
1	66201	360	12
1	71516	380	12
1	76766	400	9
1	82127	420	5
1	87530	440	12
1	92920	460	1
1	98077	480	5
1	103361	500	8
1	108687	520	8
1	113906	540	5
1	119138	560	0
1	124394	580	2
1	129682	600	19
1	135135	620	5
1	140476	640	11
1	145728	660	8
1	150921	680	10
1	156159	700	9
1	161399	720	7
1	166766	740	13
1	172123	760	9
1	177480	780	7
1	182712	800	7
1	188016	820	14
1	193279	840	4
1	198516	860	8
1	203911	880	3
1	209191	900	1
1	214566	920	6
1	219876	940	14
1	225270	960	0
1	230656	980	10
1	236033	1000	13
1	241299	1020	14
1	246602	1040	0
1	251883	1060	18
1	257143	1080	5
1	262349	1100	7
1	267728	1120	9
1	273009	1140	13
1	278271	1160	15
1	283634	1180	15
1	288876	1200	11
1	294106	1220	4
1	299391	1240	10
1	304781	1260	14
1	310146	1280	13
1	315468	1300	11
1	320720	1320	14
1	325988	1340	5
1	331392	1360	11
1	336780	1380	3
1	342194	1400	13
1	347573	1420	2
1	352878	1440	8
1	358326	1460	15
1	363675	1480	8
1	369018	1500	21
1	374349	1520	15
1	379682	1540	13
1	384975	1560	8
1	390218	1580	12
1	395533	1600	1
1	400919	1620	18
1	406366	1640	2
1	411758	1660	13
1	417040	1680	6
1	422343	1700	24
1	427495	1720	9
1	432715	1740	13
1	438015	1760	11
1	443417	1780	11
1	448807	1800	13
1	453652	1820	1
1	457924	1840	6
1	461664	1860	11
1	464958	1880	6
1	467896	1900	0
1	470395	1920	5
1	472456	1940	0
1	474049	1960	2
1	475173	1980	2
1	475739	2000	2
2	34380	240	30
2	39657	260	32
2	45045	280	32
2	50316	300	38
2	55659	320	22
2	60941	340	33
2	66201	360	25
2	71516	380	26
2	76766	400	27
2	82127	420	33
2	87530	440	26
2	92920	460	38
2	98077	480	32
2	103361	500	31
2	108687	520	32
2	113906	540	33
2	119138	560	39
2	124394	580	37
2	129682	600	17
2	135135	620	35
2	140476	640	26
2	145728	660	31
2	150921	680	29
2	156159	700	29
2	161399	720	29
2	166766	740	24
2	172123	760	29
2	177480	780	31
2	182712	800	32
2	188016	820	21
2	193279	840	34
2	198516	860	30
2	203911	880	36
2	209191	900	38
2	214566	920	33
2	219876	940	21
2	225270	960	41
2	230656	980	29
2	236033	1000	22
2	241299	1020	23
2	246602	1040	40
2	251883	1060	17
2	257143	1080	33
2	262349	1100	31
2	267728	1120	29
2	273009	1140	22
2	278271	1160	22
2	283634	1180	20
2	288876	1200	25
2	294106	1220	34
2	299391	1240	26
2	304781	1260	22
2	310146	1280	24
2	315468	1300	26
2	320720	1320	20
2	325988	1340	34
2	331392	1360	27
2	336780	1380	35
2	342194	1400	26
2	347573	1420	37
2	352878	1440	30
2	358326	1460	21
2	363675	1480	29
2	369018	1500	14
2	374349	1520	24
2	379682	1540	24
2	384975	1560	31
2	390218	1580	25
2	395533	1600	39
2	400919	1620	18
2	406366	1640	39
2	411758	1660	22
2	417040	1680	32
2	422343	1700	10
2	427495	1720	28
2	432715	1740	24
2	438015	1760	27
2	443417	1780	26
2	448807	1800	24
2	453652	1820	35
2	457924	1840	26
2	461664	1860	15
2	464958	1880	19
2	467896	1900	24
2	470395	1920	12
2	472456	1940	18
2	474049	1960	11
2	475173	1980	8
2	475739	2000	5
3	34380	240	0
3	39657	260	0
3	45045	280	0
3	50316	300	0
3	55659	320	0
3	60941	340	0
3	66201	360	0
3	71516	380	0
3	76766	400	0
3	82127	420	0
3	87530	440	0
3	92920	460	0
3	98077	480	1
3	103361	500	0
3	108687	520	0
3	113906	540	0
3	119138	560	0
3	124394	580	1
3	129682	600	0
3	135135	620	0
3	140476	640	1
3	145728	660	0
3	150921	680	0
3	156159	700	0
3	161399	720	0
3	166766	740	0
3	172123	760	0
3	177480	780	0
3	182712	800	0
3	188016	820	0
3	193279	840	0
3	198516	860	1
3	203911	880	2
3	209191	900	1
3	214566	920	0
3	219876	940	0
3	225270	960	0
3	230656	980	0
3	236033	1000	0
3	241299	1020	0
3	246602	1040	0
3	251883	1060	0
3	257143	1080	0
3	262349	1100	0
3	267728	1120	0
3	273009	1140	0
3	278271	1160	1
3	283634	1180	0
3	288876	1200	0
3	294106	1220	0
3	299391	1240	0
3	304781	1260	0
3	310146	1280	0
3	315468	1300	1
3	320720	1320	0
3	325988	1340	0
3	331392	1360	0
3	336780	1380	0
3	342194	1400	0
3	347573	1420	1
3	352878	1440	0
3	358326	1460	0
3	363675	1480	1
3	369018	1500	0
3	374349	1520	0
3	379682	1540	0
3	384975	1560	0
3	390218	1580	0
3	395533	1600	0
3	400919	1620	1
3	406366	1640	0
3	411758	1660	0
3	417040	1680	0
3	422343	1700	0
3	427495	1720	0
3	432715	1740	0
3	438015	1760	0
3	443417	1780	0
3	448807	1800	0
3	453652	1820	0
3	457924	1840	0
3	461664	1860	0
3	464958	1880	0
3	467896	1900	0
3	470395	1920	0
3	472456	1940	0
3	474049	1960	1
3	475173	1980	0
3	475739	2000	0
4	34380	240	30
4	39657	260	32
4	45045	280	32
4	50316	300	38
4	55659	320	21
4	60941	340	33
4	66201	360	25
4	71516	380	26
4	76766	400	27
4	82127	420	32
4	87530	440	26
4	92920	460	38
4	98077	480	31
4	103361	500	31
4	108687	520	32
4	113906	540	32
4	119138	560	39
4	124394	580	36
4	129682	600	17
4	135135	620	35
4	140476	640	25
4	145728	660	31
4	150921	680	29
4	156159	700	29
4	161399	720	29
4	166766	740	24
4	172123	760	29
4	177480	780	31
4	182712	800	32
4	188016	820	21
4	193279	840	34
4	198516	860	29
4	203911	880	34
4	209191	900	37
4	214566	920	33
4	219876	940	21
4	225270	960	41
4	230656	980	28
4	236033	1000	22
4	241299	1020	23
4	246602	1040	40
4	251883	1060	17
4	257143	1080	33
4	262349	1100	31
4	267728	1120	29
4	273009	1140	22
4	278271	1160	21
4	283634	1180	20
4	288876	1200	25
4	294106	1220	34
4	299391	1240	25
4	304781	1260	21
4	310146	1280	24
4	315468	1300	25
4	320720	1320	20
4	325988	1340	34
4	331392	1360	27
4	336780	1380	35
4	342194	1400	26
4	347573	1420	36
4	352878	1440	30
4	358326	1460	21
4	363675	1480	28
4	369018	1500	14
4	374349	1520	24
4	379682	1540	24
4	384975	1560	31
4	390218	1580	24
4	395533	1600	39
4	400919	1620	17
4	406366	1640	39
4	411758	1660	21
4	417040	1680	32
4	422343	1700	10
4	427495	1720	28
4	432715	1740	24
4	438015	1760	27
4	443417	1780	26
4	448807	1800	23
4	453652	1820	35
4	457924	1840	26
4	461664	1860	15
4	464958	1880	19
4	467896	1900	24
4	470395	1920	12
4	472456	1940	18
4	474049	1960	10
4	475173	1980	8
4	475739	2000	5
5	34380	240	3.5
5	39657	260	3.5
5	45045	280	2.3333333333333
5	50316	300	2
5	55659	320	3.5
5	60941	340	6
5	66201	360	4
5	71516	380	4
5	76766	400	2.25
5	82127	420	2.5
5	87530	440	4
5	92920	460	1
5	98077	480	2.5
5	103361	500	8
5	108687	520	4
5	113906	540	2.5
5	119138	560	nan
5	124394	580	2
5	129682	600	3.8
5	135135	620	5
5	140476	640	5.5
5	145728	660	4
5	150921	680	5
5	156159	700	4.5
5	161399	720	2.3333333333333
5	166766	740	4.3333333333333
5	172123	760	3
5	177480	780	3.5
5	182712	800	7
5	188016	820	2.8
5	193279	840	2
5	198516	860	4
5	203911	880	1.5
5	209191	900	1
5	214566	920	3
5	219876	940	2.8
5	225270	960	nan
5	230656	980	5
5	236033	1000	3.25
5	241299	1020	3.5
5	246602	1040	nan
5	251883	1060	3.6
5	257143	1080	5
5	262349	1100	3.5
5	267728	1120	4.5
5	273009	1140	2.6
5	278271	1160	3.75
5	283634	1180	3
5	288876	1200	3.6666666666667
5	294106	1220	2
5	299391	1240	2.5
5	304781	1260	2.8
5	310146	1280	4.3333333333333
5	315468	1300	3.6666666666667
5	320720	1320	2.3333333333333
5	325988	1340	5
5	331392	1360	5.5
5	336780	1380	1.5
5	342194	1400	4.3333333333333
5	347573	1420	1
5	352878	1440	8
5	358326	1460	3.75
5	363675	1480	2.6666666666667
5	369018	1500	4.2
5	374349	1520	7.5
5	379682	1540	4.3333333333333
5	384975	1560	4
5	390218	1580	4
5	395533	1600	1
5	400919	1620	3.6
5	406366	1640	2
5	411758	1660	2.6
5	417040	1680	6
5	422343	1700	4
5	427495	1720	3
5	432715	1740	3.25
5	438015	1760	3.6666666666667
5	443417	1780	3.6666666666667
5	448807	1800	3.25
5	453652	1820	1
5	457924	1840	3
5	461664	1860	2.2
5	464958	1880	3
5	467896	1900	nan
5	470395	1920	1.6666666666667
5	472456	1940	nan
5	474049	1960	2
5	475173	1980	2
5	475739	2000	2
6	34380	240	2.1213203435596
6	39657	260	3.5355339059327
6	45045	280	2.3094010767585
6	50316	300	nan
6	55659	320	3.3166247903554
6	60941	340	nan
6	66201	360	1
6	71516	380	1
6	76766	400	0.5
6	82127	420	0.70710678118655
6	87530	440	2.6457513110646
6	92920	460	nan
6	98077	480	0.70710678118655
6	103361	500	nan
6	108687	520	4.2426406871193
6	113906	540	0.70710678118655
6	119138	560	nan
6	124394	580	nan
6	129682	600	2.0493901531919
6	135135	620	nan
6	140476	640	3.5355339059327
6	145728	660	1.4142135623731
6	150921	680	2.8284271247462
6	156159	700	2.1213203435596
6	161399	720	0.57735026918963
6	166766	740	0.57735026918963
6	172123	760	1
6	177480	780	0.70710678118655
6	182712	800	nan
6	188016	820	1.6431676725155
6	193279	840	1.4142135623731
6	198516	860	4.2426406871193
6	203911	880	0.70710678118655
6	209191	900	nan
6	214566	920	1.4142135623731
6	219876	940	2.0493901531919
6	225270	960	nan
6	230656	980	2.8284271247462
6	236033	1000	2.2173557826083
6	241299	1020	1.9148542155127
6	246602	1040	nan
6	251883	1060	1.8165902124585
6	257143	1080	nan
6	262349	1100	3.5355339059327
6	267728	1120	2.1213203435596
6	273009	1140	1.1401754250991
6	278271	1160	1.2583057392118
6	283634	1180	2
6	288876	1200	2.0816659994661
6	294106	1220	0
6	299391	1240	1.2909944487358
6	304781	1260	1.9235384061671
6	310146	1280	3.2145502536643
6	315468	1300	0.57735026918963
6	320720	1320	1.8618986725025
6	325988	1340	nan
6	331392	1360	3.5355339059327
6	336780	1380	0.70710678118655
6	342194	1400	3.2145502536643
6	347573	1420	0
6	352878	1440	nan
6	358326	1460	2.872281323269
6	363675	1480	1.5275252316519
6	369018	1500	1.4832396974191
6	374349	1520	2.1213203435596
6	379682	1540	1.5275252316519
6	384975	1560	1.4142135623731
6	390218	1580	1.7320508075689
6	395533	1600	nan
6	400919	1620	2.5099800796022
6	406366	1640	nan
6	411758	1660	1.5165750888103
6	417040	1680	nan
6	422343	1700	2.6832815729997
6	427495	1720	1.7320508075689
6	432715	1740	1.7078251276599
6	438015	1760	1.5275252316519
6	443417	1780	2.0816659994661
6	448807	1800	2.0615528128088
6	453652	1820	nan
6	457924	1840	0
6	461664	1860	0.83666002653408
6	464958	1880	1.4142135623731
6	467896	1900	nan
6	470395	1920	1.1547005383793
6	472456	1940	nan
6	474049	1960	nan
6	475173	1980	nan
6	475739	2000	nan
7	34380	240	4.5
7	39657	260	12.5
7	45045	280	5.3333333333333
7	50316	300	nan
7	55659	320	11
7	60941	340	nan
7	66201	360	1
7	71516	380	1
7	76766	400	0.25
7	82127	420	0.5
7	87530	440	7
7	92920	460	nan
7	98077	480	0.5
7	103361	500	nan
7	108687	520	18
7	113906	540	0.5
7	119138	560	nan
7	124394	580	nan
7	129682	600	4.2
7	135135	620	nan
7	140476	640	12.5
7	145728	660	2
7	150921	680	8
7	156159	700	4.5
7	161399	720	0.33333333333333
7	166766	740	0.33333333333333
7	172123	760	1
7	177480	780	0.5
7	182712	800	nan
7	188016	820	2.7
7	193279	840	2
7	198516	860	18
7	203911	880	0.5
7	209191	900	nan
7	214566	920	2
7	219876	940	4.2
7	225270	960	nan
7	230656	980	8
7	236033	1000	4.9166666666667
7	241299	1020	3.6666666666667
7	246602	1040	nan
7	251883	1060	3.3
7	257143	1080	nan
7	262349	1100	12.5
7	267728	1120	4.5
7	273009	1140	1.3
7	278271	1160	1.5833333333333
7	283634	1180	4
7	288876	1200	4.3333333333333
7	294106	1220	0
7	299391	1240	1.6666666666667
7	304781	1260	3.7
7	310146	1280	10.333333333333
7	315468	1300	0.33333333333333
7	320720	1320	3.4666666666667
7	325988	1340	nan
7	331392	1360	12.5
7	336780	1380	0.5
7	342194	1400	10.333333333333
7	347573	1420	0
7	352878	1440	nan
7	358326	1460	8.25
7	363675	1480	2.3333333333333
7	369018	1500	2.2
7	374349	1520	4.5
7	379682	1540	2.3333333333333
7	384975	1560	2
7	390218	1580	3
7	395533	1600	nan
7	400919	1620	6.3
7	406366	1640	nan
7	411758	1660	2.3
7	417040	1680	nan
7	422343	1700	7.2
7	427495	1720	3
7	432715	1740	2.9166666666667
7	438015	1760	2.3333333333333
7	443417	1780	4.3333333333333
7	448807	1800	4.25
7	453652	1820	nan
7	457924	1840	0
7	461664	1860	0.7
7	464958	1880	2
7	467896	1900	nan
7	470395	1920	1.3333333333333
7	472456	1940	nan
7	474049	1960	nan
7	475173	1980	nan
7	475739	2000	nan
8	34380	240	8.8461538461538
8	39657	260	8.8536585365854
8	45045	280	8.5714285714286
8	50316	300	8.7317073170732
8	55659	320	9
8	60941	340	9
8	66201	360	8.625
8	71516	380	8.9756097560976
8	76766	400	9
8	82127	420	9.1538461538462
8	87530	440	8.8536585365854
8	92920	460	9.125
8	98077	480	9.025641025641
8	103361	500	8.825
8	108687	520	8.7142857142857
8	113906	540	9.3076923076923
8	119138	560	8.974358974359
8	124394	580	8.7
8	129682	600	8.9756097560976
8	135135	620	8.8536585365854
8	140476	640	8.8974358974359
8	145728	660	8.8292682926829
8	150921	680	8.7560975609756
8	156159	700	8.8
8	161399	720	9.1282051282051
8	166766	740	8.95
8	172123	760	9.0243902439024
8	177480	780	8.9
8	182712	800	8.65
8	188016	820	9.025
8	193279	840	9.125
8	198516	860	8.925
8	203911	880	8.780487804878
8	209191	900	9.05
8	214566	920	8.8780487804878
8	219876	940	9.175
8	225270	960	8.9756097560976
8	230656	980	9
8	236033	1000	9.1538461538462
8	241299	1020	8.9268292682927
8	246602	1040	8.95
8	251883	1060	8.875
8	257143	1080	8.8974358974359
8	262349	1100	8.85
8	267728	1120	9.15
8	273009	1140	8.8
8	278271	1160	8.8536585365854
8	283634	1180	9.05
8	288876	1200	9.025641025641
8	294106	1220	8.8
8	299391	1240	9.1282051282051
8	304781	1260	9.2
8	310146	1280	9.05
8	315468	1300	8.9
8	320720	1320	8.875
8	325988	1340	8.95
8	331392	1360	9.025
8	336780	1380	9.1
8	342194	1400	8.6904761904762
8	347573	1420	9
8	352878	1440	9.025641025641
8	358326	1460	9.1
8	363675	1480	9.05
8	369018	1500	9
8	374349	1520	8.9268292682927
8	379682	1540	8.875
8	384975	1560	8.780487804878
8	390218	1580	8.9230769230769
8	395533	1600	8.8536585365854
8	400919	1620	9.0243902439024
8	406366	1640	8.9761904761905
8	411758	1660	9.4102564102564
8	417040	1680	9.1282051282051
8	422343	1700	9.05
8	427495	1720	8.725
8	432715	1740	8.8536585365854
8	438015	1760	9.0243902439024
8	443417	1780	9.2
8	448807	1800	9.25
8	453652	1820	8.972972972973
8	457924	1840	8.2941176470588
8	461664	1860	8.3870967741935
8	464958	1880	8.037037037037
8	467896	1900	8.1666666666667
8	470395	1920	8.15
8	472456	1940	7.6666666666667
8	474049	1960	7.0714285714286
8	475173	1980	6.6363636363636
8	475739	2000	5.375
9	34380	240	2.1586845597123
9	39657	260	2.1279212345592
9	45045	280	1.5324594793172
9	50316	300	1.581524426683
9	55659	320	1.4867838833501
9	60941	340	1.8257418583506
9	66201	360	1.6280789371652
9	71516	380	1.4914389843042
9	76766	400	1.8536173919926
9	82127	420	2.0588507465965
9	87530	440	2.1628797424933
9	92920	460	1.6042811314473
9	98077	480	1.347261930677
9	103361	500	2.0366828233863
9	108687	520	2.1217309349394
9	113906	540	1.4355238573215
9	119138	560	1.8985753590685
9	124394	580	1.7126976771554
9	129682	600	1.6656500964796
9	135135	620	2.0803963037094
9	140476	640	1.6982168945052
9	145728	660	1.716135761302
9	150921	680	1.6997130317333
9	156159	700	1.6361305195256
9	161399	720	1.5590058772295
9	166766	740	1.9074751737471
9	172123	760	2.0308594840369
9	177480	780	2.1697217120387
9	182712	800	1.7910031568069
9	188016	820	1.9280320776138
9	193279	840	1.3622662114173
9	198516	860	1.3846688023884
9	203911	880	1.8236254429289
9	209191	900	1.7823925148303
9	214566	920	1.6612513649538
9	219876	940	1.6312257464549
9	225270	960	2.2190967180144
9	230656	980	1.921537845661
9	236033	1000	1.5983290870297
9	241299	1020	1.7803123869484
9	246602	1040	2.183269719175
9	251883	1060	1.6669871486746
9	257143	1080	1.5525000516124
9	262349	1100	1.5283643007796
9	267728	1120	1.2100010595461
9	273009	1140	2.0531401840558
9	278271	1160	2.0440275879958
9	283634	1180	1.7533850046008
9	288876	1200	1.6778303578883
9	294106	1220	2.1862038284403
9	299391	1240	1.5590058772295
9	304781	1260	1.4358058578856
9	310146	1280	1.6004806970215
9	315468	1300	1.5980757659905
9	320720	1320	1.712510527761
9	325988	1340	1.6004806970215
9	331392	1360	1.5273153923445
9	336780	1380	1.8646509262924
9	342194	1400	2.112542050245
9	347573	1420	1.897366596101
9	352878	1440	1.5809254366248
9	358326	1460	1.7066987176478
9	363675	1480	1.3950461806528
9	369018	1500	1.5191090506255
9	374349	1520	1.8626626627283
9	379682	1540	1.8562092609705
9	384975	1560	1.9938931155149
9	390218	1580	1.6604472350072
9	395533	1600	2.1972821349312
9	400919	1620	1.9935872802319
9	406366	1640	2.0893235600174
9	411758	1660	1.712461274521
9	417040	1680	1.489957385111
9	422343	1700	2.062485431184
9	427495	1720	1.8672274798584
9	432715	1740	1.9945046453914
9	438015	1760	2.1034234580565
9	443417	1780	1.4178351139171
9	448807	1800	1.5317159809031
9	453652	1820	1.4237369936287
9	457924	1840	1.7325653035872
9	461664	1860	1.5422368896042
9	464958	1880	1.8497709105866
9	467896	1900	1.9708013524997
9	470395	1920	1.6630662866176
9	472456	1940	1.7489492643904
9	474049	1960	1.3847680013571
9	475173	1980	0.80903983495589
9	475739	2000	1.3024701806293
10	34380	240	4.6599190283401
10	39657	260	4.5280487804878
10	45045	280	2.3484320557491
10	50316	300	2.5012195121951
10	55659	320	2.2105263157895
10	60941	340	3.3333333333333
10	66201	360	2.650641025641
10	71516	380	2.2243902439024
10	76766	400	3.4358974358974
10	82127	420	4.2388663967611
10	87530	440	4.6780487804878
10	92920	460	2.5737179487179
10	98077	480	1.8151147098516
10	103361	500	4.1480769230769
10	108687	520	4.5017421602787
10	113906	540	2.0607287449393
10	119138	560	3.6045883940621
10	124394	580	2.9333333333333
10	129682	600	2.7743902439024
10	135135	620	4.3280487804878
10	140476	640	2.8839406207827
10	145728	660	2.9451219512195
10	150921	680	2.8890243902439
10	156159	700	2.6769230769231
10	161399	720	2.4304993252362
10	166766	740	3.6384615384615
10	172123	760	4.1243902439024
10	177480	780	4.7076923076923
10	182712	800	3.2076923076923
10	188016	820	3.7173076923077
10	193279	840	1.8557692307692
10	198516	860	1.9173076923077
10	203911	880	3.3256097560976
10	209191	900	3.1769230769231
10	214566	920	2.759756097561
10	219876	940	2.6608974358974
10	225270	960	4.9243902439024
10	230656	980	3.6923076923077
10	236033	1000	2.5546558704453
10	241299	1020	3.169512195122
10	246602	1040	4.7666666666667
10	251883	1060	2.7788461538462
10	257143	1080	2.4102564102564
10	262349	1100	2.3358974358974
10	267728	1120	1.4641025641026
10	273009	1140	4.2153846153846
10	278271	1160	4.1780487804878
10	283634	1180	3.074358974359
10	288876	1200	2.8151147098516
10	294106	1220	4.7794871794872
10	299391	1240	2.4304993252362
10	304781	1260	2.0615384615385
10	310146	1280	2.5615384615385
10	315468	1300	2.5538461538462
10	320720	1320	2.9326923076923
10	325988	1340	2.5615384615385
10	331392	1360	2.3326923076923
10	336780	1380	3.4769230769231
10	342194	1400	4.4628339140534
10	347573	1420	3.6
10	352878	1440	2.4993252361673
10	358326	1460	2.9128205128205
10	363675	1480	1.9461538461538
10	369018	1500	2.3076923076923
10	374349	1520	3.469512195122
10	379682	1540	3.4455128205128
10	384975	1560	3.9756097560976
10	390218	1580	2.7570850202429
10	395533	1600	4.8280487804878
10	400919	1620	3.9743902439024
10	406366	1640	4.3652729384437
10	411758	1660	2.9325236167341
10	417040	1680	2.2199730094467
10	422343	1700	4.2538461538462
10	427495	1720	3.4865384615385
10	432715	1740	3.9780487804878
10	438015	1760	4.4243902439024
10	443417	1780	2.0102564102564
10	448807	1800	2.3461538461538
10	453652	1820	2.027027027027
10	457924	1840	3.0017825311943
10	461664	1860	2.3784946236559
10	464958	1880	3.4216524216524
10	467896	1900	3.8840579710145
10	470395	1920	2.7657894736842
10	472456	1940	3.0588235294118
10	474049	1960	1.9175824175824
10	475173	1980	0.65454545454545
10	475739	2000	1.6964285714286
11	34380	240	89.712861892937
11	39657	260	94.274590649218
11	45045	280	136.35792753543
11	50316	300	44.705094383411
11	55659	320	182.74043292214
11	60941	340	44.375394009828
11	66201	360	137.57418234612
11	71516	380	136.97862353713
11	76766	400	183.46546642005
11	82127	420	92.816218005879
11	87530	440	133.43770565994
11	92920	460	47.433916268591
11	98077	480	94.109912414771
11	103361	500	44.892313546945
11	108687	520	90.19684779097
11	113906	540	95.267887514395
11	119138	560	0
11	124394	580	44.422866792765
11	129682	600	231.41008110839
11	135135	620	44.54662525232
11	140476	640	88.989412355921
11	145728	660	91.379319420707
11	150921	680	90.348104780224
11	156159	700	89.622088211522
11	161399	720	136.33790665256
11	166766	740	136.19269877805
11	172123	760	139.67631247935
11	177480	780	93.063938334904
11	182712	800	45.476712395591
11	188016	820	228.39423331817
11	193279	840	89.804527811868
11	198516	860	97.955203167959
11	203911	880	91.441004405586
11	209191	900	44.235167451459
11	214566	920	93.117162607474
11	219876	940	238.41031486884
11	225270	960	0
11	230656	980	88.953535340284
11	236033	1000	180.11524937735
11	241299	1020	184.08965814219
11	246602	1040	0
11	251883	1060	230.98460839678
11	257143	1080	44.825024234264
11	262349	1100	91.234299268006
11	267728	1120	91.702286214643
11	273009	1140	232.52626321339
11	278271	1160	180.73550277511
11	283634	1180	228.74351088153
11	288876	1200	138.81347672484
11	294106	1220	91.409585066334
11	299391	1240	184.85036200227
11	304781	1260	236.30315178281
11	310146	1280	135.3578910415
11	315468	1300	136.49342042024
11	320720	1320	290.05501494783
11	325988	1340	44.657176177858
11	331392	1360	89.790664459384
11	336780	1380	91.973679619135
11	342194	1400	137.76176420795
11	347573	1420	90.684821890284
11	352878	1440	44.976236327058
11	358326	1460	184.83625651943
11	363675	1480	137.74581559207
11	369018	1500	233.69261788548
11	374349	1520	89.588846136941
11	379682	1540	138.26670988006
11	384975	1560	92.654565523132
11	390218	1580	136.12690899363
11	395533	1600	44.562226418629
11	400919	1620	235.11092865028
11	406366	1640	50.205697329848
11	411758	1660	233.49475322481
11	417040	1680	44.893026808656
11	422343	1700	280.06796645267
11	427495	1720	142.43933426839
11	432715	1740	182.90969799787
11	438015	1760	142.05632555824
11	443417	1780	141.4290707714
11	448807	1800	183.1217471031
11	453652	1820	47.862119621436
11	457924	1840	91.823980580732
11	461664	1860	231.10176593853
11	464958	1880	91.180136060608
11	467896	1900	0
11	470395	1920	139.80297791577
11	472456	1940	0
11	474049	1960	46.952300713741
11	475173	1980	49.854721288086
11	475739	2000	44.530985269872
12	34380	240	44.856430946469
12	39657	260	47.137295324609
12	45045	280	45.452642511811
12	50316	300	44.705094383411
12	55659	320	45.685108230535
12	60941	340	44.375394009828
12	66201	360	45.858060782039
12	71516	380	45.659541179044
12	76766	400	45.866366605013
12	82127	420	46.408109002939
12	87530	440	44.479235219981
12	92920	460	47.433916268591
12	98077	480	47.054956207386
12	103361	500	44.892313546945
12	108687	520	45.098423895485
12	113906	540	47.633943757197
12	119138	560	nan
12	124394	580	44.422866792765
12	129682	600	46.282016221678
12	135135	620	44.54662525232
12	140476	640	44.49470617796
12	145728	660	45.689659710354
12	150921	680	45.174052390112
12	156159	700	44.811044105761
12	161399	720	45.445968884188
12	166766	740	45.397566259351
12	172123	760	46.558770826452
12	177480	780	46.531969167452
12	182712	800	45.476712395591
12	188016	820	45.678846663633
12	193279	840	44.902263905934
12	198516	860	48.977601583979
12	203911	880	45.720502202793
12	209191	900	44.235167451459
12	214566	920	46.558581303737
12	219876	940	47.682062973767
12	225270	960	nan
12	230656	980	44.476767670142
12	236033	1000	45.028812344337
12	241299	1020	46.022414535548
12	246602	1040	nan
12	251883	1060	46.196921679357
12	257143	1080	44.825024234264
12	262349	1100	45.617149634003
12	267728	1120	45.851143107321
12	273009	1140	46.505252642677
12	278271	1160	45.183875693777
12	283634	1180	45.748702176306
12	288876	1200	46.27115890828
12	294106	1220	45.704792533167
12	299391	1240	46.212590500567
12	304781	1260	47.260630356563
12	310146	1280	45.119297013834
12	315468	1300	45.497806806745
12	320720	1320	48.342502491304
12	325988	1340	44.657176177858
12	331392	1360	44.895332229692
12	336780	1380	45.986839809567
12	342194	1400	45.920588069318
12	347573	1420	45.342410945142
12	352878	1440	44.976236327058
12	358326	1460	46.209064129856
12	363675	1480	45.915271864024
12	369018	1500	46.738523577097
12	374349	1520	44.79442306847
12	379682	1540	46.088903293354
12	384975	1560	46.327282761566
12	390218	1580	45.375636331211
12	395533	1600	44.562226418629
12	400919	1620	47.022185730055
12	406366	1640	50.205697329848
12	411758	1660	46.698950644962
12	417040	1680	44.893026808656
12	422343	1700	46.677994408778
12	427495	1720	47.479778089465
12	432715	1740	45.727424499467
12	438015	1760	47.352108519415
12	443417	1780	47.143023590466
12	448807	1800	45.780436775776
12	453652	1820	47.862119621436
12	457924	1840	45.911990290366
12	461664	1860	46.220353187706
12	464958	1880	45.590068030304
12	467896	1900	nan
12	470395	1920	46.60099263859
12	472456	1940	nan
12	474049	1960	46.952300713741
12	475173	1980	49.854721288086
12	475739	2000	44.530985269872
13	34380	240	0.15951433968519
13	39657	260	2.6709686279876
13	45045	280	0.79205283328494
13	50316	300	nan
13	55659	320	1.6990576415913
13	60941	340	nan
13	66201	360	0.1349976772472
13	71516	380	0.7570185822998
13	76766	400	0.4834027861852
13	82127	420	2.4693937449704
13	87530	440	0.43748701978746
13	92920	460	nan
13	98077	480	0.40008796919964
13	103361	500	nan
13	108687	520	0.11993884547956
13	113906	540	1.9081101633103
13	119138	560	nan
13	124394	580	nan
13	129682	600	1.088324382721
13	135135	620	nan
13	140476	640	0.027447209022121
13	145728	660	0.2423998087385
13	150921	680	0.43185023143589
13	156159	700	0.10589863618925
13	161399	720	0.77485918593649
13	166766	740	1.019350786096
13	172123	760	0.74175801023767
13	177480	780	1.4010646065847
13	182712	800	nan
13	188016	820	0.73643016485588
13	193279	840	0.21829369019159
13	198516	860	4.7614934169939
13	203911	880	0.5633477254054
13	209191	900	nan
13	214566	920	1.4540136022465
13	219876	940	2.7234890746545
13	225270	960	nan
13	230656	980	0.69438945370611
13	236033	1000	0.54092872049806
13	241299	1020	1.2444386351626
13	246602	1040	nan
13	251883	1060	1.6740974537213
13	257143	1080	nan
13	262349	1100	1.5697704034649
13	267728	1120	1.1331746213637
13	273009	1140	1.4523996143454
13	278271	1160	0.65655901403203
13	283634	1180	0.76314405200065
13	288876	1200	0.61238922802021
13	294106	1220	0.94948417959582
13	299391	1240	1.0178475705337
13	304781	1260	2.6332256583107
13	310146	1280	1.0002792523965
13	315468	1300	0.45214230548231
13	320720	1320	4.5238630159567
13	325988	1340	nan
13	331392	1360	0.27615595010402
13	336780	1380	0.0081649725178503
13	342194	1400	1.0182988137942
13	347573	1420	0.061995089443451
13	352878	1440	nan
13	358326	1460	1.1853320078303
13	363675	1480	1.1644322948516
13	369018	1500	1.244523610983
13	374349	1520	0.079850410822356
13	379682	1540	1.4250499642863
13	384975	1560	0.9359526009871
13	390218	1580	0.7625026587865
13	395533	1600	nan
13	400919	1620	1.2818071608578
13	406366	1640	nan
13	411758	1660	1.7871600346845
13	417040	1680	nan
13	422343	1700	2.8633631401933
13	427495	1720	1.6594006951356
13	432715	1740	0.88128861728265
13	438015	1760	1.5410104471782
13	443417	1780	1.7743957851699