version 2
run statisticRVV-24-20150325-00:33:07-4388
attr c 16
attr configname statisticRVV
attr datetime 20150325-00:33:07
attr experiment statisticRVV
attr inifile omnetpp.ini
attr iterationvars "$sc=\"erlangen-low.launchd.xml\", $p=1/15, $c=16"
attr iterationvars2 "$sc=\"erlangen-low.launchd.xml\", $p=1/15, $c=16, $repetition=4"
attr measurement "$sc=\"erlangen-low.launchd.xml\", $p=1/15, $c=16"
attr network RSUExampleScenario
attr p 1/15
attr processid 4388
attr repetition 4
attr replication #4
attr resultdir results
attr runnumber 24
attr sc "\"erlangen-low.launchd.xml\""
attr seedset 24

vector 0  RSUExampleScenario.rsu[0].appl  Number_CH  ETV
vector 1  RSUExampleScenario.rsu[0].appl  Number_ON  ETV
vector 2  RSUExampleScenario.rsu[0].appl  Number_FN  ETV
vector 3  RSUExampleScenario.rsu[0].appl  Number_CH_Losts  ETV
vector 4  RSUExampleScenario.rsu[0].appl  Mean_Cluster_Size  ETV
vector 5  RSUExampleScenario.rsu[0].appl  StdDev_Cluster_Size  ETV
vector 6  RSUExampleScenario.rsu[0].appl  Variance_Cluster_Size  ETV
vector 7  RSUExampleScenario.rsu[0].appl  Mean_Neighbors  ETV
vector 8  RSUExampleScenario.rsu[0].appl  StdDev_Neighbors  ETV
vector 9  RSUExampleScenario.rsu[0].appl  Variance_Neighbors  ETV
vector 10  RSUExampleScenario.rsu[0].appl  Total_CH_Utility  ETV
vector 11  RSUExampleScenario.rsu[0].appl  Mean_CH_Utility  ETV
vector 12  RSUExampleScenario.rsu[0].appl  StdDev_CH_Utility  ETV
vector 13  RSUExampleScenario.rsu[0].appl  Variance_CH_Utility  ETV
vector 14  RSUExampleScenario.rsu[0].appl  Total_exp_CH_Utility  ETV
vector 15  RSUExampleScenario.rsu[0].appl  Mean_exp_CH_Utility  ETV
vector 16  RSUExampleScenario.rsu[0].appl  StdDev_exp_CH_Utility  ETV
vector 17  RSUExampleScenario.rsu[0].appl  Variance_exp_CH_Utility  ETV
vector 18  RSUExampleScenario.rsu[0].appl  Total_ON_Utility  ETV
vector 19  RSUExampleScenario.rsu[0].appl  Mean_ON_Utility  ETV
vector 20  RSUExampleScenario.rsu[0].appl  StdDev_ON_Utility  ETV
vector 21  RSUExampleScenario.rsu[0].appl  Variance_ON_Utility  ETV
vector 22  RSUExampleScenario.rsu[0].appl  Total_exp_ON_Utility  ETV
vector 23  RSUExampleScenario.rsu[0].appl  Mean_exp_ON_Utility  ETV
vector 24  RSUExampleScenario.rsu[0].appl  StdDev_exp_ON_Utility  ETV
vector 25  RSUExampleScenario.rsu[0].appl  Variance_exp_ON_Utility  ETV
0	34835	240	4
0	40280	260	2
0	45594	280	3
0	50874	300	3
0	56213	320	0
0	61394	340	2
0	66712	360	5
0	72013	380	3
0	77329	400	0
0	82693	420	2
0	88018	440	2
0	93331	460	1
0	98644	480	2
0	103916	500	0
0	109265	520	1
0	114541	540	1
0	119876	560	1
0	125164	580	2
0	130644	600	3
0	135955	620	1
0	141373	640	0
0	146629	660	1
0	151883	680	2
0	157139	700	1
0	162487	720	5
0	167834	740	0
0	173092	760	2
0	178513	780	2
0	183853	800	3
0	189107	820	4
0	194308	840	2
0	199724	860	3
0	205085	880	1
0	210442	900	2
0	215723	920	2
0	221163	940	1
0	226421	960	1
0	231750	980	1
0	237069	1000	2
0	242303	1020	3
0	247640	1040	2
0	252902	1060	3
0	258172	1080	3
0	263478	1100	1
0	268800	1120	2
0	274148	1140	3
0	279557	1160	1
0	284804	1180	2
0	290002	1200	0
0	295355	1220	1
0	300751	1240	3
0	305960	1260	2
0	311175	1280	4
0	316579	1300	4
0	322023	1320	0
0	327309	1340	0
0	332535	1360	5
0	337955	1380	3
0	343304	1400	4
0	348703	1420	3
0	354125	1440	3
0	359436	1460	0
0	364641	1480	2
0	369988	1500	2
0	375333	1520	0
0	380625	1540	0
0	385918	1560	1
0	391180	1580	1
0	396358	1600	0
0	401629	1620	4
0	406905	1640	1
0	412156	1660	1
0	417477	1680	2
0	422825	1700	0
0	428045	1720	1
0	433273	1740	2
0	438464	1760	1
0	443862	1780	4
0	449181	1800	1
0	454061	1820	5
0	458363	1840	4
0	462164	1860	0
0	465524	1880	4
0	468460	1900	1
0	470977	1920	0
0	472975	1940	0
0	474549	1960	0
0	475635	1980	1
0	476212	2000	2
1	34835	240	4
1	40280	260	3
1	45594	280	5
1	50874	300	4
1	56213	320	0
1	61394	340	4
1	66712	360	6
1	72013	380	4
1	77329	400	0
1	82693	420	3
1	88018	440	3
1	93331	460	1
1	98644	480	2
1	103916	500	0
1	109265	520	1
1	114541	540	1
1	119876	560	1
1	125164	580	2
1	130644	600	3
1	135955	620	1
1	141373	640	0
1	146629	660	1
1	151883	680	3
1	157139	700	1
1	162487	720	7
1	167834	740	0
1	173092	760	2
1	178513	780	3
1	183853	800	3
1	189107	820	5
1	194308	840	2
1	199724	860	6
1	205085	880	1
1	210442	900	3
1	215723	920	3
1	221163	940	1
1	226421	960	1
1	231750	980	1
1	237069	1000	3
1	242303	1020	4
1	247640	1040	3
1	252902	1060	5
1	258172	1080	4
1	263478	1100	1
1	268800	1120	3
1	274148	1140	4
1	279557	1160	2
1	284804	1180	3
1	290002	1200	0
1	295355	1220	2
1	300751	1240	4
1	305960	1260	4
1	311175	1280	7
1	316579	1300	6
1	322023	1320	0
1	327309	1340	0
1	332535	1360	8
1	337955	1380	3
1	343304	1400	6
1	348703	1420	6
1	354125	1440	6
1	359436	1460	0
1	364641	1480	3
1	369988	1500	2
1	375333	1520	0
1	380625	1540	0
1	385918	1560	1
1	391180	1580	2
1	396358	1600	0
1	401629	1620	6
1	406905	1640	2
1	412156	1660	2
1	417477	1680	3
1	422825	1700	0
1	428045	1720	1
1	433273	1740	2
1	438464	1760	2
1	443862	1780	4
1	449181	1800	2
1	454061	1820	7
1	458363	1840	5
1	462164	1860	0
1	465524	1880	5
1	468460	1900	1
1	470977	1920	0
1	472975	1940	0
1	474549	1960	0
1	475635	1980	1
1	476212	2000	2
2	34835	240	32
2	40280	260	36
2	45594	280	33
2	50874	300	33
2	56213	320	39
2	61394	340	34
2	66712	360	30
2	72013	380	34
2	77329	400	41
2	82693	420	36
2	88018	440	35
2	93331	460	38
2	98644	480	37
2	103916	500	40
2	109265	520	39
2	114541	540	37
2	119876	560	38
2	125164	580	36
2	130644	600	35
2	135955	620	38
2	141373	640	41
2	146629	660	39
2	151883	680	35
2	157139	700	38
2	162487	720	29
2	167834	740	42
2	173092	760	36
2	178513	780	36
2	183853	800	34
2	189107	820	31
2	194308	840	35
2	199724	860	31
2	205085	880	38
2	210442	900	36
2	215723	920	36
2	221163	940	39
2	226421	960	39
2	231750	980	39
2	237069	1000	36
2	242303	1020	33
2	247640	1040	36
2	252902	1060	32
2	258172	1080	32
2	263478	1100	39
2	268800	1120	35
2	274148	1140	33
2	279557	1160	38
2	284804	1180	35
2	290002	1200	40
2	295355	1220	38
2	300751	1240	34
2	305960	1260	33
2	311175	1280	29
2	316579	1300	31
2	322023	1320	40
2	327309	1340	40
2	332535	1360	27
2	337955	1380	35
2	343304	1400	32
2	348703	1420	33
2	354125	1440	31
2	359436	1460	40
2	364641	1480	35
2	369988	1500	35
2	375333	1520	40
2	380625	1540	40
2	385918	1560	38
2	391180	1580	36
2	396358	1600	40
2	401629	1620	31
2	406905	1640	37
2	412156	1660	38
2	417477	1680	36
2	422825	1700	41
2	428045	1720	38
2	433273	1740	36
2	438464	1760	36
2	443862	1780	33
2	449181	1800	38
2	454061	1820	25
2	458363	1840	25
2	462164	1860	31
2	465524	1880	19
2	468460	1900	21
2	470977	1920	21
2	472975	1940	18
2	474549	1960	14
2	475635	1980	9
2	476212	2000	3
3	34835	240	0
3	40280	260	2
3	45594	280	1
3	50874	300	1
3	56213	320	0
3	61394	340	2
3	66712	360	0
3	72013	380	0
3	77329	400	0
3	82693	420	0
3	88018	440	1
3	93331	460	1
3	98644	480	1
3	103916	500	1
3	109265	520	1
3	114541	540	0
3	119876	560	1
3	125164	580	1
3	130644	600	1
3	135955	620	2
3	141373	640	2
3	146629	660	0
3	151883	680	0
3	157139	700	1
3	162487	720	1
3	167834	740	0
3	173092	760	1
3	178513	780	1
3	183853	800	0
3	189107	820	0
3	194308	840	0
3	199724	860	0
3	205085	880	0
3	210442	900	2
3	215723	920	0
3	221163	940	0
3	226421	960	0
3	231750	980	3
3	237069	1000	1
3	242303	1020	2
3	247640	1040	3
3	252902	1060	0
3	258172	1080	1
3	263478	1100	1
3	268800	1120	1
3	274148	1140	0
3	279557	1160	0
3	284804	1180	0
3	290002	1200	0
3	295355	1220	0
3	300751	1240	3
3	305960	1260	0
3	311175	1280	0
3	316579	1300	0
3	322023	1320	1
3	327309	1340	0
3	332535	1360	0
3	337955	1380	0
3	343304	1400	0
3	348703	1420	0
3	354125	1440	1
3	359436	1460	1
3	364641	1480	1
3	369988	1500	0
3	375333	1520	1
3	380625	1540	1
3	385918	1560	0
3	391180	1580	1
3	396358	1600	1
3	401629	1620	0
3	406905	1640	0
3	412156	1660	0
3	417477	1680	0
3	422825	1700	1
3	428045	1720	2
3	433273	1740	1
3	438464	1760	0
3	443862	1780	1
3	449181	1800	0
3	454061	1820	0
3	458363	1840	0
3	462164	1860	0
3	465524	1880	0
3	468460	1900	0
3	470977	1920	0
3	472975	1940	0
3	474549	1960	0
3	475635	1980	0
3	476212	2000	0
4	34835	240	1
4	40280	260	1.5
4	45594	280	1.6666666666667
4	50874	300	1.3333333333333
4	56213	320	nan
4	61394	340	2
4	66712	360	1.2
4	72013	380	1.3333333333333
4	77329	400	nan
4	82693	420	1.5
4	88018	440	1.5
4	93331	460	1
4	98644	480	1
4	103916	500	nan
4	109265	520	1
4	114541	540	1
4	119876	560	1
4	125164	580	1
4	130644	600	1
4	135955	620	1
4	141373	640	nan
4	146629	660	1
4	151883	680	1.5
4	157139	700	1
4	162487	720	1.4
4	167834	740	nan
4	173092	760	1
4	178513	780	1.5
4	183853	800	1
4	189107	820	1.25
4	194308	840	1
4	199724	860	2
4	205085	880	1
4	210442	900	1.5
4	215723	920	1.5
4	221163	940	1
4	226421	960	1
4	231750	980	1
4	237069	1000	1.5
4	242303	1020	1.3333333333333
4	247640	1040	1.5
4	252902	1060	1.6666666666667
4	258172	1080	1.3333333333333
4	263478	1100	1
4	268800	1120	1.5
4	274148	1140	1.3333333333333
4	279557	1160	2
4	284804	1180	1.5
4	290002	1200	nan
4	295355	1220	2
4	300751	1240	1.3333333333333
4	305960	1260	2
4	311175	1280	1.75
4	316579	1300	1.5
4	322023	1320	nan
4	327309	1340	nan
4	332535	1360	1.6
4	337955	1380	1
4	343304	1400	1.5
4	348703	1420	2
4	354125	1440	2
4	359436	1460	nan
4	364641	1480	1.5
4	369988	1500	1
4	375333	1520	nan
4	380625	1540	nan
4	385918	1560	1
4	391180	1580	2
4	396358	1600	nan
4	401629	1620	1.5
4	406905	1640	2
4	412156	1660	2
4	417477	1680	1.5
4	422825	1700	nan
4	428045	1720	1
4	433273	1740	1
4	438464	1760	2
4	443862	1780	1
4	449181	1800	2
4	454061	1820	1.4
4	458363	1840	1.25
4	462164	1860	nan
4	465524	1880	1.25
4	468460	1900	1
4	470977	1920	nan
4	472975	1940	nan
4	474549	1960	nan
4	475635	1980	1
4	476212	2000	1
5	34835	240	0
5	40280	260	0.70710678118655
5	45594	280	0.57735026918963
5	50874	300	0.57735026918963
5	56213	320	nan
5	61394	340	0
5	66712	360	0.44721359549996
5	72013	380	0.57735026918963
5	77329	400	nan
5	82693	420	0.70710678118655
5	88018	440	0.70710678118655
5	93331	460	nan
5	98644	480	0
5	103916	500	nan
5	109265	520	nan
5	114541	540	nan
5	119876	560	nan
5	125164	580	0
5	130644	600	0
5	135955	620	nan
5	141373	640	nan
5	146629	660	nan
5	151883	680	0.70710678118655
5	157139	700	nan
5	162487	720	0.54772255750517
5	167834	740	nan
5	173092	760	0
5	178513	780	0.70710678118655
5	183853	800	0
5	189107	820	0.5
5	194308	840	0
5	199724	860	0
5	205085	880	nan
5	210442	900	0.70710678118655
5	215723	920	0.70710678118655
5	221163	940	nan
5	226421	960	nan
5	231750	980	nan
5	237069	1000	0.70710678118655
5	242303	1020	0.57735026918963
5	247640	1040	0.70710678118655
5	252902	1060	0.57735026918963
5	258172	1080	0.57735026918963
5	263478	1100	nan
5	268800	1120	0.70710678118655
5	274148	1140	0.57735026918963
5	279557	1160	nan
5	284804	1180	0.70710678118655
5	290002	1200	nan
5	295355	1220	nan
5	300751	1240	0.57735026918963
5	305960	1260	0
5	311175	1280	0.5
5	316579	1300	0.57735026918963
5	322023	1320	nan
5	327309	1340	nan
5	332535	1360	0.54772255750517
5	337955	1380	0
5	343304	1400	0.57735026918963
5	348703	1420	0
5	354125	1440	0
5	359436	1460	nan
5	364641	1480	0.70710678118655
5	369988	1500	0
5	375333	1520	nan
5	380625	1540	nan
5	385918	1560	nan
5	391180	1580	nan
5	396358	1600	nan
5	401629	1620	0.57735026918963
5	406905	1640	nan
5	412156	1660	nan
5	417477	1680	0.70710678118655
5	422825	1700	nan
5	428045	1720	nan
5	433273	1740	0
5	438464	1760	nan
5	443862	1780	0
5	449181	1800	nan
5	454061	1820	0.54772255750517
5	458363	1840	0.5
5	462164	1860	nan
5	465524	1880	0.5
5	468460	1900	nan
5	470977	1920	nan
5	472975	1940	nan
5	474549	1960	nan
5	475635	1980	nan
5	476212	2000	0
6	34835	240	0
6	40280	260	0.5
6	45594	280	0.33333333333333
6	50874	300	0.33333333333333
6	56213	320	nan
6	61394	340	0
6	66712	360	0.2
6	72013	380	0.33333333333333
6	77329	400	nan
6	82693	420	0.5
6	88018	440	0.5
6	93331	460	nan
6	98644	480	0
6	103916	500	nan
6	109265	520	nan
6	114541	540	nan
6	119876	560	nan
6	125164	580	0
6	130644	600	0
6	135955	620	nan
6	141373	640	nan
6	146629	660	nan
6	151883	680	0.5
6	157139	700	nan
6	162487	720	0.3
6	167834	740	nan
6	173092	760	0
6	178513	780	0.5
6	183853	800	0
6	189107	820	0.25
6	194308	840	0
6	199724	860	0
6	205085	880	nan
6	210442	900	0.5
6	215723	920	0.5
6	221163	940	nan
6	226421	960	nan
6	231750	980	nan
6	237069	1000	0.5
6	242303	1020	0.33333333333333
6	247640	1040	0.5
6	252902	1060	0.33333333333333
6	258172	1080	0.33333333333333
6	263478	1100	nan
6	268800	1120	0.5
6	274148	1140	0.33333333333333
6	279557	1160	nan
6	284804	1180	0.5
6	290002	1200	nan
6	295355	1220	nan
6	300751	1240	0.33333333333333
6	305960	1260	0
6	311175	1280	0.25
6	316579	1300	0.33333333333333
6	322023	1320	nan
6	327309	1340	nan
6	332535	1360	0.3
6	337955	1380	0
6	343304	1400	0.33333333333333
6	348703	1420	0
6	354125	1440	0
6	359436	1460	nan
6	364641	1480	0.5
6	369988	1500	0
6	375333	1520	nan
6	380625	1540	nan
6	385918	1560	nan
6	391180	1580	nan
6	396358	1600	nan
6	401629	1620	0.33333333333333
6	406905	1640	nan
6	412156	1660	nan
6	417477	1680	0.5
6	422825	1700	nan
6	428045	1720	nan
6	433273	1740	0
6	438464	1760	nan
6	443862	1780	0
6	449181	1800	nan
6	454061	1820	0.3
6	458363	1840	0.25
6	462164	1860	nan
6	465524	1880	0.25
6	468460	1900	nan
6	470977	1920	nan
6	472975	1940	nan
6	474549	1960	nan
6	475635	1980	nan
6	476212	2000	0
7	34835	240	9.2
7	40280	260	8.8536585365854
7	45594	280	9.25
7	50874	300	8.95
7	56213	320	9.2307692307692
7	61394	340	8.9230769230769
7	66712	360	8.8536585365854
7	72013	380	9.125
7	77329	400	8.7317073170732
7	82693	420	8.9
7	88018	440	9
7	93331	460	9.075
7	98644	480	8.8780487804878
7	103916	500	8.95
7	109265	520	8.9024390243902
7	114541	540	9.1282051282051
7	119876	560	8.9
7	125164	580	9.075
7	130644	600	9.425
7	135955	620	8.925
7	141373	640	9.2
7	146629	660	8.8780487804878
7	151883	680	8.775
7	157139	700	8.775
7	162487	720	8.8048780487805
7	167834	740	8.9047619047619
7	173092	760	9.025
7	178513	780	9.1463414634146
7	183853	800	9.025
7	189107	820	9.2307692307692
7	194308	840	8.8974358974359
7	199724	860	9.075
7	205085	880	8.925
7	210442	900	8.9512195121951
7	215723	920	8.9756097560976
7	221163	940	9.1
7	226421	960	8.7073170731707
7	231750	980	9.225
7	237069	1000	9
7	242303	1020	9.125
7	247640	1040	8.7
7	252902	1060	9.1
7	258172	1080	9.0769230769231
7	263478	1100	8.9268292682927
7	268800	1120	9.05
7	274148	1140	9.25
7	279557	1160	9.0487804878049
7	284804	1180	8.875
7	290002	1200	8.85
7	295355	1220	8.85
7	300751	1240	9.05
7	305960	1260	8.974358974359
7	311175	1280	8.85
7	316579	1300	9.05
7	322023	1320	9.25
7	327309	1340	9.075
7	332535	1360	8.975
7	337955	1380	8.9756097560976
7	343304	1400	8.9512195121951
7	348703	1420	8.9512195121951
7	354125	1440	9.15
7	359436	1460	8.8
7	364641	1480	8.9
7	369988	1500	9.1538461538462
7	375333	1520	9.15
7	380625	1540	8.975
7	385918	1560	9.075
7	391180	1580	9
7	396358	1600	8.8
7	401629	1620	8.609756097561
7	406905	1640	8.75
7	412156	1660	9.15
7	417477	1680	8.7560975609756
7	422825	1700	8.7317073170732
7	428045	1720	9.2051282051282
7	433273	1740	8.775
7	438464	1760	8.9230769230769
7	443862	1780	8.7073170731707
7	449181	1800	8.6341463414634
7	454061	1820	8.6756756756757
7	458363	1840	8.3529411764706
7	462164	1860	8.1935483870968
7	465524	1880	8
7	468460	1900	8.0434782608696
7	470977	1920	8
7	472975	1940	7.5
7	474549	1960	7.2142857142857
7	475635	1980	6.3636363636364
7	476212	2000	4.5714285714286
8	34835	240	1.9767883821219
8	40280	260	2.2645195473848
8	45594	280	1.4632243987255
8	50874	300	1.1972189997379
8	56213	320	1.459299371572
8	61394	340	1.5792172508892
8	66712	360	1.9178239701515
8	72013	380	1.4533339214301
8	77329	400	2.3132703067725
8	82693	420	2.0102302457743
8	88018	440	1.9348358440937
8	93331	460	2.0049617938684
8	98644	480	1.7775702792185
8	103916	500	1.9208705291465
8	109265	520	1.6704023175388
8	114541	540	1.592407762833
8	119876	560	1.9974342516698
8	125164	580	1.575249268024
8	130644	600	1.4480313780422
8	135955	620	1.639066338358
8	141373	640	2.0025624610125
8	146629	660	2.1118134618287
8	151883	680	1.8043750249794
8	157139	700	1.5273153923445
8	162487	720	1.805817158451
8	167834	740	1.8585271353036
8	173092	760	1.7019973183865
8	178513	780	1.9565400022713
8	183853	800	2.0937942494367
8	189107	820	1.459299371572
8	194308	840	1.586038955433
8	199724	860	1.7004901254246
8	205085	880	1.7742820866697
8	210442	900	1.7168462294596
8	215723	920	1.4051299740246
8	221163	940	1.481509971236
8	226421	960	1.7211028795372
8	231750	980	1.6715952767434
8	237069	1000	1.8841443681417
8	242303	1020	1.6974717247749
8	247640	1040	1.6203829873339
8	252902	1060	1.7802333468483
8	258172	1080	1.691847563505
8	263478	1100	1.7942999178292
8	268800	1120	1.8250395148515
8	274148	1140	1.5483655567843
8	279557	1160	1.9358618172818
8	284804	1180	1.6359346109433
8	290002	1200	1.8749358963401
8	295355	1220	1.4771767944465
8	300751	1240	1.9208705291465
8	305960	1260	1.7242417019356
8	311175	1280	1.1668498024761
8	316579	1300	1.7089507952287
8	322023	1320	1.9315199276138
8	327309	1340	1.4030644117751
8	332535	1360	1.9012479032845
8	337955	1380	1.7816818582178
8	343304	1400	1.9615200676031
8	348703	1420	1.8020990471142
8	354125	1440	1.6259119728908
8	359436	1460	1.7423826892785
8	364641	1480	1.6763819404469
8	369988	1500	1.6469822729123
8	375333	1520	1.5778921350154
8	380625	1540	1.3490262395046
8	385918	1560	1.4916433890176
8	391180	1580	1.4867838833501
8	396358	1600	1.5884196306634
8	401629	1620	1.7446783196407
8	406905	1640	1.6756169931378
8	412156	1660	1.5283643007796
8	417477	1680	2.1304986247928
8	422825	1700	1.9496716421478
8	428045	1720	1.2603150646082
8	433273	1740	1.8325756009871
8	438464	1760	1.5110925880688
8	443862	1780	2.0030464602578
8	449181	1800	1.8132305088016
8	454061	1820	1.4917188827742
8	458363	1840	1.6856318470258
8	462164	1860	1.6210974644503
8	465524	1880	1.6329931618555
8	468460	1900	1.5514878744308
8	470977	1920	1.7320508075689
8	472975	1940	1.6890651782778
8	474549	1960	1.7177163475235
8	475635	1980	0.67419986246324
8	476212	2000	1.5118578920369
9	34835	240	3.9076923076923
9	40280	260	5.1280487804878
9	45594	280	2.1410256410256
9	50874	300	1.4333333333333
9	56213	320	2.1295546558704
9	61394	340	2.4939271255061
9	66712	360	3.6780487804878
9	72013	380	2.1121794871795
9	77329	400	5.3512195121951
9	82693	420	4.0410256410256
9	88018	440	3.7435897435897
9	93331	460	4.0198717948718
9	98644	480	3.159756097561
9	103916	500	3.6897435897436
9	109265	520	2.790243902439
9	114541	540	2.5357624831309
9	119876	560	3.9897435897436
9	125164	580	2.4814102564103
9	130644	600	2.0967948717949
9	135955	620	2.6865384615385
9	141373	640	4.0102564102564
9	146629	660	4.459756097561
9	151883	680	3.2557692307692
9	157139	700	2.3326923076923
9	162487	720	3.2609756097561
9	167834	740	3.4541231126597
9	173092	760	2.8967948717949
9	178513	780	3.8280487804878
9	183853	800	4.3839743589744
9	189107	820	2.1295546558704
9	194308	840	2.5155195681511
9	199724	860	2.8916666666667
9	205085	880	3.1480769230769
9	210442	900	2.9475609756098
9	215723	920	1.9743902439024
9	221163	940	2.1948717948718
9	226421	960	2.9621951219512
9	231750	980	2.7942307692308
9	237069	1000	3.55
9	242303	1020	2.8814102564103
9	247640	1040	2.625641025641
9	252902	1060	3.1692307692308
9	258172	1080	2.8623481781377
9	263478	1100	3.219512195122
9	268800	1120	3.3307692307692
9	274148	1140	2.3974358974359
9	279557	1160	3.7475609756098
9	284804	1180	2.6762820512821
9	290002	1200	3.5153846153846
9	295355	1220	2.1820512820513
9	300751	1240	3.6897435897436
9	305960	1260	2.9730094466937
9	311175	1280	1.3615384615385
9	316579	1300	2.9205128205128
9	322023	1320	3.7307692307692
9	327309	1340	1.9685897435897
9	332535	1360	3.6147435897436
9	337955	1380	3.1743902439024
9	343304	1400	3.8475609756098
9	348703	1420	3.2475609756098
9	354125	1440	2.6435897435897
9	359436	1460	3.0358974358974
9	364641	1480	2.8102564102564
9	369988	1500	2.7125506072874
9	375333	1520	2.4897435897436
9	380625	1540	1.8198717948718
9	385918	1560	2.225
9	391180	1580	2.2105263157895
9	396358	1600	2.5230769230769
9	401629	1620	3.0439024390244
9	406905	1640	2.8076923076923
9	412156	1660	2.3358974358974
9	417477	1680	4.5390243902439
9	422825	1700	3.8012195121951
9	428045	1720	1.5883940620783
9	433273	1740	3.3583333333333
9	438464	1760	2.2834008097166
9	443862	1780	4.0121951219512
9	449181	1800	3.2878048780488
9	454061	1820	2.2252252252252
9	458363	1840	2.8413547237077
9	462164	1860	2.6279569892473
9	465524	1880	2.6666666666667
9	468460	1900	2.4071146245059
9	470977	1920	3
9	472975	1940	2.8529411764706
9	474549	1960	2.9505494505495
9	475635	1980	0.45454545454545
9	476212	2000	2.2857142857143
10	34835	240	190.54503375284
10	40280	260	93.180465640588
10	45594	280	137.53563726883
10	50874	300	138.95300542453
10	56213	320	0
10	61394	340	91.627044236097
10	66712	360	235.27081769523
10	72013	380	141.1244514605
10	77329	400	0
10	82693	420	95.209519955938
10	88018	440	91.892612056054
10	93331	460	46.223904193149
10	98644	480	98.047012610627
10	103916	500	0
10	109265	520	51.121953894938
10	114541	540	44.989986647263
10	119876	560	51.487648493063
10	125164	580	99.097151182294
10	130644	600	148.76706971499
10	135955	620	46.108016884894
10	141373	640	0
10	146629	660	48.477116052513
10	151883	680	102.32134974946
10	157139	700	46.714576640423
10	162487	720	242.00595684753
10	167834	740	0
10	173092	760	95.581315243266
10	178513	780	96.022643162407
10	183853	800	144.42954538657
10	189107	820	183.72243298844
10	194308	840	96.026995082668
10	199724	860	144.87731247378
10	205085	880	51.127581201379
10	210442	900	91.144105789725
10	215723	920	94.176188264983
10	221163	940	47.70170242854
10	226421	960	44.966533219548
10	231750	980	55.28470388255
10	237069	1000	95.591209249788
10	242303	1020	136.13515008672
10	247640	1040	92.843812029759
10	252902	1060	143.78059761251
10	258172	1080	137.27064974943
10	263478	1100	45.183877662619
10	268800	1120	90.002798226022
10	274148	1140	136.62329085339
10	279557	1160	47.529581959019
10	284804	1180	91.268927837848
10	290002	1200	0
10	295355	1220	46.038322291104
10	300751	1240	149.71641081594
10	305960	1260	95.302576917857
10	311175	1280	190.15521904134
10	316579	1300	189.97484994148
10	322023	1320	0
10	327309	1340	0
10	332535	1360	229.74037307603
10	337955	1380	141.17899530094
10	343304	1400	186.1888541663
10	348703	1420	148.68573035496
10	354125	1440	137.37353371451
10	359436	1460	0
10	364641	1480	105.74419176294
10	369988	1500	92.133298580672
10	375333	1520	0
10	380625	1540	0
10	385918	1560	44.394159884715
10	391180	1580	49.224258588215
10	396358	1600	0
10	401629	1620	192.81841485412
10	406905	1640	47.623781941767
10	412156	1660	45.537871255991
10	417477	1680	90.055915611153
10	422825	1700	0
10	428045	1720	48.345294014237
10	433273	1740	91.616913767493
10	438464	1760	46.265952732389
10	443862	1780	188.73990469268
10	449181	1800	46.86002700472
10	454061	1820	234.95461876834
10	458363	1840	183.05268913682
10	462164	1860	0
10	465524	1880	185.95143770226
10	468460	1900	45.537717953425
10	470977	1920	0
10	472975	1940	0
10	474549	1960	0
10	475635	1980	46.718645140525
10	476212	2000	97.038505484605
11	34835	240	47.636258438211
11	40280	260	46.590232820294
11	45594	280	45.845212422943
11	50874	300	46.317668474843
11	56213	320	nan
11	61394	340	45.813522118048
11	66712	360	47.054163539045
11	72013	380	47.041483820167
11	77329	400	nan
11	82693	420	47.604759977969
11	88018	440	45.946306028027
11	93331	460	46.223904193149
11	98644	480	49.023506305313
11	103916	500	nan
11	109265	520	51.121953894938
11	114541	540	44.989986647263
11	119876	560	51.487648493063
11	125164	580	49.548575591147
11	130644	600	49.589023238329
11	135955	620	46.108016884894
11	141373	640	nan
11	146629	660	48.477116052513
11	151883	680	51.160674874729
11	157139	700	46.714576640423
11	162487	720	48.401191369507
11	167834	740	nan
11	173092	760	47.790657621633
11	178513	780	48.011321581204
11	183853	800	48.143181795524
11	189107	820	45.930608247111
11	194308	840	48.013497541334
11	199724	860	48.29243749126
11	205085	880	51.127581201379
11	210442	900	45.572052894862
11	215723	920	47.088094132491
11	221163	940	47.70170242854
11	226421	960	44.966533219548
11	231750	980	55.28470388255
11	237069	1000	47.795604624894
11	242303	1020	45.378383362239
11	247640	1040	46.421906014879
11	252902	1060	47.926865870838
11	258172	1080	45.75688324981
11	263478	1100	45.183877662619
11	268800	1120	45.001399113011
11	274148	1140	45.541096951131
11	279557	1160	47.529581959019
11	284804	1180	45.634463918924
11	290002	1200	nan
11	295355	1220	46.038322291104
11	300751	1240	49.905470271982
11	305960	1260	47.651288458929
11	311175	1280	47.538804760335
11	316579	1300	47.493712485371
11	322023	1320	nan
11	327309	1340	nan
11	332535	1360	45.948074615206
11	337955	1380	47.059665100313
11	343304	1400	46.547213541576
11	348703	1420	49.561910118321
11	354125	1440	45.791177904835
11	359436	1460	nan
11	364641	1480	52.872095881469
11	369988	1500	46.066649290336
11	375333	1520	nan
11	380625	1540	nan
11	385918	1560	44.394159884715
11	391180	1580	49.224258588215
11	396358	1600	nan
11	401629	1620	48.204603713529
11	406905	1640	47.623781941767
11	412156	1660	45.537871255991
11	417477	1680	45.027957805577
11	422825	1700	nan
11	428045	1720	48.345294014237
11	433273	1740	45.808456883747
11	438464	1760	46.265952732389
11	443862	1780	47.184976173169
11	449181	1800	46.86002700472
11	454061	1820	46.990923753667
11	458363	1840	45.763172284205
11	462164	1860	nan
11	465524	1880	46.487859425565
11	468460	1900	45.537717953425
11	470977	1920	nan
11	472975	1940	nan
11	474549	1960	nan
11	475635	1980	46.718645140525
11	476212	2000	48.519252742302
12	34835	240	1.7336105934646
12	40280	260	0.14119029733938
12	45594	280	0.35657282434196
12	50874	300	0.2470271893453
12	56213	320	nan
12	61394	340	1.2484281615818
12	66712	360	2.1958782206091
12	72013	380	2.5965588976107
12	77329	400	nan
12	82693	420	3.0024657622954
12	88018	440	0.70564999235214
12	93331	460	nan
12	98644	480	3.3174525535402
12	103916	500	nan
12	109265	520	nan
12	114541	540	nan
12	119876	560	nan
12	125164	580	2.7186525771019
12	130644	600	4.7110260480465
12	135955	620	nan
12	141373	640	nan
12	146629	660	nan
12	151883	680	0.80003019140126
12	157139	700	nan
12	162487	720	2.0278775290298
12	167834	740	nan
12	173092	760	1.2705152587989
12	178513	780	1.6145265283052
12	183853	800	3.4334696226275
12	189107	820	3.5280588931229
12	194308	840	1.2493689664311
12	199724	860	2.1559787327601
12	205085	880	nan
12	210442	900	1.4240978158766
12	215723	920	0.46987378733268
12	221163	940	nan
12	226421	960	nan
12	231750	980	nan
12	237069	1000	2.8076379079695
12	242303	1020	1.0072975624201
12	247640	1040	1.4338202765907
12	252902	1060	1.5677389863667
12	258172	1080	0.34570516854398
12	263478	1100	nan
12	268800	1120	1.0415893062115
12	274148	1140	0.69712572671581
12	279557	1160	nan
12	284804	1180	0.41827942869287
12	290002	1200	nan
12	295355	1220	nan
12	300751	1240	5.3915360625177
12	305960	1260	1.1136194029247
12	311175	1280	1.5281662440932
12	316579	1300	2.2575608565002
12	322023	1320	nan
12	327309	1340	nan
12	332535	1360	0.34445166766085
12	337955	1380	1.4908670935087
12	343304	1400	0.84451362642351
12	348703	1420	2.3396862057467
12	354125	1440	1.2174428376721
12	359436	1460	nan
12	364641	1480	7.0358223897266
12	369988	1500	0.85934896141451
12	375333	1520	nan
12	380625	1540	nan
12	385918	1560	nan
12	391180	1580	nan
12	396358	1600	nan
12	401629	1620	1.6531444699433
12	406905	1640	nan
12	412156	1660	nan
12	417477	1680	1.2071420602966
12	422825	1700	nan
12	428045	1720	nan
12	433273	1740	0.65352606797758
12	438464	1760	nan
12	443862	1780	2.2526671905
12	449181	1800	nan
12	454061	1820	1.305184589836
12	458363	1840	0.77467677413031
12	462164	1860	nan
12	465524	1880	1.0288596836179
12	468460	1900	nan
12	470977	1920	nan
12	472975	1940	nan
12	474549	1960	nan
12	475635	1980	nan
12	476212	2000	2.081111023676
13	34835	240	3.0054056897727
13	40280	260	0.019934700062782
13	45594	280	0.1271441790592
13	50874	300	0.061022432275839
13	56213	320	nan
13	61394	340	1.5585728746304
13	66712	360	4.8218811597455
13	72013	380	6.7421181087615
13	77329	400	nan
13	82693	420	9.0148006537558
13	88018	440	0.49794191170658
13	93331	460	nan
13	98644	480	11.00549144499
13	103916	500	nan
13	109265	520	nan
13	114541	540	nan
13	119876	560	nan
13	125164	580	7.3910718349827
13	130644	600	22.193766425373
13	135955	620	nan
13	141373	640	nan
13	146629	660	nan
13	151883	680	0.64004830715354
13	157139	700	nan
13	162487	720	4.1122872727439
13	167834	740	nan
13	173092	760	1.6142090228407
13	178513	780	2.6066959106013
13	183853	800	11.788713649506
13	189107	820	12.447199553343
13	194308	840	1.560922814281
13	199724	860	4.6482442961138
13	205085	880	nan
13	210442	900	2.0280545891845
13	215723	920	0.22078137602235
13	221163	940	nan
13	226421	960	nan
13	231750	980	nan
13	237069	1000	7.8828306222675
13	242303	1020	1.0146483792575
13	247640	1040	2.0558405855627
13	252902	1060	2.4578055293741
13	258172	1080	0.11951206355802
13	263478	1100	nan
13	268800	1120	1.0849082828141
13	274148	1140	0.48598427884904
13	279557	1160	nan
13	284804	1180	0.17495768046763
13	290002	1200	nan
13	295355	1220	nan
13	300751	1240	29.068661113429
13	305960	1260	1.2401481745705
13	311175	1280	2.3352920695859
13	316579	1300	5.096581020802
13	322023	1320	nan
13	327309	1340	nan
13	332535	1360	0.11864695135434
13	337955	1380	2.2226846905069
13	343304	1400	0.71320326521498
13	348703	1420	5.4741315413612
13	354125	1440	1.4821670629991
13	359436	1460	nan
13	364641	1480	49.502796699778
13	369988	1500	0.73848063748419
13	375333	1520	nan
13	380625	1540	nan
13	385918	1560	nan
13	391180	1580	nan
13	396358	1600	nan
13	401629	1620	2.7328866385041
13	406905	1640	nan
13	412156	1660	nan
13	417477	1680	1.4571919537371
13	422825	1700	nan
13	428045	1720	nan
13	433273	1740	0.42709632152624
13	438464	1760	nan
13	443862	1780	5.0745094711551
13	449181	1800	nan
13	454061	1820	1.7035068135453
13	458363	1840	0.60012410437695
13	462164	1860	nan
13	465524	1880	1.0585522485744
13	468460	1900	nan
13	470977	1920	nan
13	472975	1940	nan
13	474549	1960	nan
13	475635	1980	nan
13	476212	2000	4.3310230928657
14	34835	240	179.41090438864
14	40280	260	178.45578315092
14	45594	280	177.94598312043
14	50874	300	179.02756067464
14	56213	320	0
14	61394	340	177.98154725871
14	66712	360	225.86041619213
14	72013	380	136.2627040428
14	77329	400	0
14	82693	420	90.093265158671
14	88018	440	136.63734901606