file 72232 1427436228                                           
version 2
run statisticRVV-129-20150327-06:03:29-10276
attr c 14
attr configname statisticRVV
attr datetime 20150327-06:03:29
attr experiment statisticRVV
attr inifile omnetpp.ini
attr iterationvars "$sc=\"erlangen-medium.launchd.xml\", $p=1/15, $c=14"
attr iterationvars2 "$sc=\"erlangen-medium.launchd.xml\", $p=1/15, $c=14, $repetition=9"
attr measurement "$sc=\"erlangen-medium.launchd.xml\", $p=1/15, $c=14"
attr network RSUExampleScenario
attr p 1/15
attr processid 10276
attr repetition 9
attr replication #9
attr resultdir results
attr runnumber 129
attr sc "\"erlangen-medium.launchd.xml\""
attr seedset 129

vector 0  RSUExampleScenario.rsu[0].appl  Number_CH  ETV
vector 1  RSUExampleScenario.rsu[0].appl  Number_ON  ETV
vector 2  RSUExampleScenario.rsu[0].appl  Number_FN  ETV
vector 3  RSUExampleScenario.rsu[0].appl  Number_CH_Losts  ETV
vector 4  RSUExampleScenario.rsu[0].appl  Number_CH_Losts  ETV
vector 5  RSUExampleScenario.rsu[0].appl  Mean_Cluster_Size  ETV
vector 6  RSUExampleScenario.rsu[0].appl  StdDev_Cluster_Size  ETV
vector 7  RSUExampleScenario.rsu[0].appl  Variance_Cluster_Size  ETV
vector 8  RSUExampleScenario.rsu[0].appl  Mean_Neighbors  ETV
vector 9  RSUExampleScenario.rsu[0].appl  StdDev_Neighbors  ETV
vector 10  RSUExampleScenario.rsu[0].appl  Variance_Neighbors  ETV
vector 11  RSUExampleScenario.rsu[0].appl  Total_CH_Utility  ETV
vector 12  RSUExampleScenario.rsu[0].appl  Mean_CH_Utility  ETV
vector 13  RSUExampleScenario.rsu[0].appl  StdDev_CH_Utility  ETV
vector 14  RSUExampleScenario.rsu[0].appl  Variance_CH_Utility  ETV
vector 15  RSUExampleScenario.rsu[0].appl  Total_exp_CH_Utility  ETV
vector 16  RSUExampleScenario.rsu[0].appl  Mean_exp_CH_Utility  ETV
vector 17  RSUExampleScenario.rsu[0].appl  StdDev_exp_CH_Utility  ETV
vector 18  RSUExampleScenario.rsu[0].appl  Variance_exp_CH_Utility  ETV
vector 19  RSUExampleScenario.rsu[0].appl  Total_ON_Utility  ETV
vector 20  RSUExampleScenario.rsu[0].appl  Mean_ON_Utility  ETV
vector 21  RSUExampleScenario.rsu[0].appl  StdDev_ON_Utility  ETV
vector 22  RSUExampleScenario.rsu[0].appl  Variance_ON_Utility  ETV
vector 23  RSUExampleScenario.rsu[0].appl  Total_exp_ON_Utility  ETV
vector 24  RSUExampleScenario.rsu[0].appl  Mean_exp_ON_Utility  ETV
vector 25  RSUExampleScenario.rsu[0].appl  StdDev_exp_ON_Utility  ETV
vector 26  RSUExampleScenario.rsu[0].appl  Variance_exp_ON_Utility  ETV
0	2440 1570 146548 7137334 240 2000 89 2 16 768 7616
1	4010 1657 146548 7137334 240 2000 89 27 165 8094 824254
2	5667 1625 146548 7137334 240 2000 89 1 98 3704 189004
3	7292 1537 146548 7137334 240 2000 89 0 2 17 23
4	8829 1625 146548 7137334 240 2000 89 1 98 3670 186524
5	10454 2244 146548 7137334 240 2000 89 7.0909090909091 14 965.83791070041 10705.133038649
6	12698 2668 146548 7137334 240 2000 89 0 5.4589376255825 273.13388688091 1015.1288836164
7	15366 2494 146548 7137334 240 2000 89 0 29.8 1015.1288836164 16574.961017836
8	17860 2725 146548 7137334 240 2000 89 21.892156862745 62.688775510204 3396.165061326 144783.7372426
9	20585 2777 146548 7137334 240 2000 89 2.666554355227 31.962318784511 1403.4616193661 30722.056253901
10	23362 2853 146548 7137334 240 2000 89 7.1105121293801 1021.5898220827 30722.056253901 20605432.557678
11	26215 2864 146548 7137334 240 2000 89 90.850233920674 774.7682888463 36510.130036896 17295570.177894
12	29079 2868 146548 7137334 240 2000 89 45.331410879329 49.295663752118 4215.7085526249 199745.37999213
13	31947 2875 146548 7137334 240 2000 89 0.11899948804683 4.0794842946282 159.7005518053 322.08997590768
14	34822 2874 146548 7137334 240 2000 89 0.014160878155408 16.642192110118 322.08997590768 1755.7876835779
15	37696 2862 146548 7137334 240 2000 89 89.083474239545 731.57627044978 35830.205499274 16581822.498572
16	40558 2861 146548 7137334 240 2000 89 44.526027975527 46.823025393582 4059.6350499414 185193.55960258
17	43419 2914 146548 7137334 240 2000 89 0.060211830332922 2.2034676881246 92.273741348369 111.30298450504
18	46333 2917 146548 7137334 240 2000 89 0.0036254645120406 4.8552698526091 111.30298450504 216.98689895867
19	49250 2864 146548 7137334 240 2000 89 1227.5448309571 7918.001458445 383554.20742987 1860673785.4798
20	52114 2863 146548 7137334 240 2000 89 45.300830733373 49.014857666005 4202.2362048895 198466.01244264
21	54977 2860 146548 7137334 240 2000 89 1.3600976732593 3.3226414895073 227.97060246395 596.62748523117
22	57837 2869 146548 7137334 240 2000 89 1.8498656808055 11.039946467795 596.62748523117 4308.7470217723
23	60706 2858 146548 7137334 240 2000 89 3404.7389694434 8514.4604844927 535868.58636029 3393462851.8191
24	63564 2860 146548 7137334 240 2000 89 44.79919696636 45.726103083062 4051.5852585329 184445.77683867
25	66424 2903 146548 7137334 240 2000 89 0.37549357811725 1.5599224101774 92.34396268824 99.868608611144
26	69327 2905 146548 7137334 240 2000 89 0.14099542720729 2.4333579257738 99.868608611144 129.55204256037
