file 72651 1427451089                                           
version 2
run statisticRVV-151-20150327-08:54:02-17400
attr c 9
attr configname statisticRVV
attr datetime 20150327-08:54:02
attr experiment statisticRVV
attr inifile omnetpp.ini
attr iterationvars "$sc=\"erlangen-medium.launchd.xml\", $p=1/10, $c=9"
attr iterationvars2 "$sc=\"erlangen-medium.launchd.xml\", $p=1/10, $c=9, $repetition=1"
attr measurement "$sc=\"erlangen-medium.launchd.xml\", $p=1/10, $c=9"
attr network RSUExampleScenario
attr p 1/10
attr processid 17400
attr repetition 1
attr replication #1
attr resultdir results
attr runnumber 151
attr sc "\"erlangen-medium.launchd.xml\""
attr seedset 151

vector 0  RSUExampleScenario.rsu[0].appl  Number_CH  ETV
vector 1  RSUExampleScenario.rsu[0].appl  Number_ON  ETV
vector 2  RSUExampleScenario.rsu[0].appl  Number_FN  ETV
vector 3  RSUExampleScenario.rsu[0].appl  Number_CH_Losts  ETV
vector 4  RSUExampleScenario.rsu[0].appl  Number_CH_Losts  ETV
vector 5  RSUExampleScenario.rsu[0].appl  Mean_Cluster_Size  ETV
vector 6  RSUExampleScenario.rsu[0].appl  StdDev_Cluster_Size  ETV
vector 7  RSUExampleScenario.rsu[0].appl  Variance_Cluster_Size  ETV
vector 8  RSUExampleScenario.rsu[0].appl  Mean_Neighbors  ETV
vector 9  RSUExampleScenario.rsu[0].appl  StdDev_Neighbors  ETV
vector 10  RSUExampleScenario.rsu[0].appl  Variance_Neighbors  ETV
vector 11  RSUExampleScenario.rsu[0].appl  Total_CH_Utility  ETV
vector 12  RSUExampleScenario.rsu[0].appl  Mean_CH_Utility  ETV
vector 13  RSUExampleScenario.rsu[0].appl  StdDev_CH_Utility  ETV
vector 14  RSUExampleScenario.rsu[0].appl  Variance_CH_Utility  ETV
vector 15  RSUExampleScenario.rsu[0].appl  Total_exp_CH_Utility  ETV
vector 16  RSUExampleScenario.rsu[0].appl  Mean_exp_CH_Utility  ETV
vector 17  RSUExampleScenario.rsu[0].appl  StdDev_exp_CH_Utility  ETV
vector 18  RSUExampleScenario.rsu[0].appl  Variance_exp_CH_Utility  ETV
vector 19  RSUExampleScenario.rsu[0].appl  Total_ON_Utility  ETV
vector 20  RSUExampleScenario.rsu[0].appl  Mean_ON_Utility  ETV
vector 21  RSUExampleScenario.rsu[0].appl  StdDev_ON_Utility  ETV
vector 22  RSUExampleScenario.rsu[0].appl  Variance_ON_Utility  ETV
vector 23  RSUExampleScenario.rsu[0].appl  Total_exp_ON_Utility  ETV
vector 24  RSUExampleScenario.rsu[0].appl  Mean_exp_ON_Utility  ETV
vector 25  RSUExampleScenario.rsu[0].appl  StdDev_exp_ON_Utility  ETV
vector 26  RSUExampleScenario.rsu[0].appl  Variance_exp_ON_Utility  ETV
0	2436 1610 145345 7150662 240 2000 89 4 26 1278 20496
1	4046 1660 145345 7150662 240 2000 89 30 149 8114 809284
2	5706 1621 145345 7150662 240 2000 89 2 103 3189 151193
3	7327 1537 145345 7150662 240 2000 89 0 2 37 53
4	8864 1620 145345 7150662 240 2000 89 2 103 3140 147794
5	10484 2454 145345 7150662 240 2000 89 4.3333333333333 9 581.86184452391 3911.2721473547
6	12938 2737 145345 7150662 240 2000 89 0 3.1880458534401 182.86166200108 411.74093250336
7	15675 2662 145345 7150662 240 2000 89 0 10.163636363636 411.74093250336 2370.680749831
8	18337 2719 145345 7150662 240 2000 89 21.893617021277 61.716494845361 3401.776144088 145209.65887504
9	21056 2772 145345 7150662 240 2000 89 3.4847376122766 31.734439474964 1408.5092717745 30678.263312931
10	23828 2864 145345 7150662 240 2000 89 12.143396226415 1007.0746487901 30678.263312931 20267750.379297
11	26692 2869 145345 7150662 240 2000 89 182.054898364 1268.9513806925 61289.692558505 47455882.633761
12	29561 2862 145345 7150662 240 2000 89 45.513724590999 49.924132220326 4250.0396964634 203011.5765003
13	32423 2862 145345 7150662 240 2000 89 0.43512526072115 2.9840038884977 173.50120988322 360.294978907
14	35285 2862 145345 7150662 240 2000 89 0.18933399251765 8.9042792065694 360.294978907 1766.5347592213
15	38147 2866 145345 7150662 240 2000 89 178.18369786728 1278.5851375549 59697.566398328 44885147.168539
16	41013 2860 145345 7150662 240 2000 89 44.54592446682 46.454121118646 4045.6723628578 183912.13810537
17	43873 2907 145345 7150662 240 2000 89 0.29393371439385 1.8317689439537 88.45658678444 95.661648754742
18	46780 2914 145345 7150662 240 2000 89 0.086397028457367 3.3553774640332 95.661648754742 136.31065261676
19	49694 2864 145345 7150662 240 2000 89 1366.8371918519 7284.3218027369 388621.81075002 1868122261.584
20	52558 2853 145345 7150662 240 2000 89 45.561239728395 48.962446374137 4246.3748032799 202651.67621305
21	55411 2856 145345 7150662 240 2000 89 1.352862403509 3.5942181446758 235.54249836348 637.85248026636
22	58267 2861 145345 7150662 240 2000 89 1.8302366828282 12.918404071517 637.85248026636 4950.6728151798
23	61128 2856 145345 7150662 240 2000 89 3362.5037653618 8108.862724196 512859.84962854 3114862238.0952
24	63984 2864 145345 7150662 240 2000 89 44.827321013315 45.797416862824 4053.116377929 184585.31222156
25	66848 2902 145345 7150662 240 2000 89 0.36803672354128 1.4287910692157 91.747519954368 98.272309729569
26	69750 2901 145345 7150662 240 2000 89 0.135451029875 2.0414439194705 98.272309729569 123.13748564212
