version 2
run statisticRVV-140-20150325-14:49:00-24068
attr c 16
attr configname statisticRVV
attr datetime 20150325-14:49:00
attr experiment statisticRVV
attr inifile omnetpp.ini
attr iterationvars "$sc=\"erlangen-medium.launchd.xml\", $p=1/15, $c=16"
attr iterationvars2 "$sc=\"erlangen-medium.launchd.xml\", $p=1/15, $c=16, $repetition=0"
attr measurement "$sc=\"erlangen-medium.launchd.xml\", $p=1/15, $c=16"
attr network RSUExampleScenario
attr p 1/15
attr processid 24068
attr repetition 0
attr replication #0
attr resultdir results
attr runnumber 140
attr sc "\"erlangen-medium.launchd.xml\""
attr seedset 140

vector 0  RSUExampleScenario.rsu[0].appl  Number_CH  ETV
vector 1  RSUExampleScenario.rsu[0].appl  Number_ON  ETV
vector 2  RSUExampleScenario.rsu[0].appl  Number_FN  ETV
vector 3  RSUExampleScenario.rsu[0].appl  Number_CH_Losts  ETV
vector 4  RSUExampleScenario.rsu[0].appl  Mean_Cluster_Size  ETV
vector 5  RSUExampleScenario.rsu[0].appl  StdDev_Cluster_Size  ETV
vector 6  RSUExampleScenario.rsu[0].appl  Variance_Cluster_Size  ETV
vector 7  RSUExampleScenario.rsu[0].appl  Mean_Neighbors  ETV
vector 8  RSUExampleScenario.rsu[0].appl  StdDev_Neighbors  ETV
vector 9  RSUExampleScenario.rsu[0].appl  Variance_Neighbors  ETV
vector 10  RSUExampleScenario.rsu[0].appl  Total_CH_Utility  ETV
vector 11  RSUExampleScenario.rsu[0].appl  Mean_CH_Utility  ETV
vector 12  RSUExampleScenario.rsu[0].appl  StdDev_CH_Utility  ETV
vector 13  RSUExampleScenario.rsu[0].appl  Variance_CH_Utility  ETV
vector 14  RSUExampleScenario.rsu[0].appl  Total_exp_CH_Utility  ETV
vector 15  RSUExampleScenario.rsu[0].appl  Mean_exp_CH_Utility  ETV
vector 16  RSUExampleScenario.rsu[0].appl  StdDev_exp_CH_Utility  ETV
vector 17  RSUExampleScenario.rsu[0].appl  Variance_exp_CH_Utility  ETV
vector 18  RSUExampleScenario.rsu[0].appl  Total_ON_Utility  ETV
vector 19  RSUExampleScenario.rsu[0].appl  Mean_ON_Utility  ETV
vector 20  RSUExampleScenario.rsu[0].appl  StdDev_ON_Utility  ETV
vector 21  RSUExampleScenario.rsu[0].appl  Variance_ON_Utility  ETV
vector 22  RSUExampleScenario.rsu[0].appl  Total_exp_ON_Utility  ETV
vector 23  RSUExampleScenario.rsu[0].appl  Mean_exp_ON_Utility  ETV
vector 24  RSUExampleScenario.rsu[0].appl  StdDev_exp_ON_Utility  ETV
vector 25  RSUExampleScenario.rsu[0].appl  Variance_exp_ON_Utility  ETV
0	145534	240	4
0	171142	260	3
0	198452	280	7
0	225949	300	4
0	253051	320	5
0	280223	340	5
0	308014	360	4
0	336354	380	5
0	364229	400	9
0	392770	420	10
0	422006	440	6
0	451481	460	3
0	481571	480	5
0	512536	500	5
0	543869	520	6
0	575987	540	5
0	608993	560	5
0	642581	580	6
0	677031	600	5
0	712543	620	6
0	749745	640	6
0	787620	660	2
0	826412	680	5
0	866332	700	7
0	907690	720	9
0	950875	740	3
0	994736	760	6
0	1039752	780	11
0	1086062	800	8
0	1133028	820	8
0	1181613	840	7
0	1231217	860	8
0	1282149	880	15
0	1333868	900	5
0	1386904	920	8
0	1441752	940	10
0	1498140	960	8
0	1555091	980	11
0	1613271	1000	6
0	1673992	1020	4
0	1735293	1040	8
0	1798467	1060	6
0	1863181	1080	5
0	1930055	1100	8
0	1998751	1120	6
0	2068335	1140	7
0	2139687	1160	9
0	2213498	1180	8
0	2289245	1200	10
0	2367504	1220	7
0	2447042	1240	7
0	2529028	1260	10
0	2612790	1280	6
0	2698717	1300	10
0	2786282	1320	10
0	2876665	1340	9
0	2968399	1360	7
0	3062072	1380	7
0	3158230	1400	7
0	3256416	1420	11
0	3356808	1440	10
0	3460115	1460	10
0	3565326	1480	8
0	3672972	1500	8
0	3782788	1520	9
0	3895065	1540	14
0	4009910	1560	12
0	4126383	1580	11
0	4245856	1600	8
0	4367346	1620	12
0	4491766	1640	8
0	4618171	1660	4
0	4745814	1680	9
0	4876608	1700	7
0	5008918	1720	12
0	5143869	1740	8
0	5281381	1760	9
0	5421106	1780	10
0	5563264	1800	9
0	5709104	1820	8
0	5857425	1840	10
0	6007862	1860	5
0	6161241	1880	11
0	6316887	1900	12
0	6474661	1920	12
0	6635864	1940	16
0	6799001	1960	11
0	6965582	1980	12
0	7134041	2000	7
1	145534	240	5
1	171142	260	5
1	198452	280	12
1	225949	300	5
1	253051	320	7
1	280223	340	8
1	308014	360	5
1	336354	380	7
1	364229	400	14
1	392770	420	15
1	422006	440	10
1	451481	460	3
1	481571	480	6
1	512536	500	7
1	543869	520	8
1	575987	540	7
1	608993	560	8
1	642581	580	7
1	677031	600	5
1	712543	620	7
1	749745	640	9
1	787620	660	2
1	826412	680	8
1	866332	700	9
1	907690	720	12
1	950875	740	5
1	994736	760	8
1	1039752	780	13
1	1086062	800	12
1	1133028	820	11
1	1181613	840	8
1	1231217	860	12
1	1282149	880	21
1	1333868	900	6
1	1386904	920	12
1	1441752	940	11
1	1498140	960	11
1	1555091	980	15
1	1613271	1000	8
1	1673992	1020	5
1	1735293	1040	11
1	1798467	1060	8
1	1863181	1080	6
1	1930055	1100	11
1	1998751	1120	9
1	2068335	1140	11
1	2139687	1160	10
1	2213498	1180	11
1	2289245	1200	16
1	2367504	1220	8
1	2447042	1240	10
1	2529028	1260	16
1	2612790	1280	9
1	2698717	1300	16
1	2786282	1320	15
1	2876665	1340	13
1	2968399	1360	11
1	3062072	1380	12
1	3158230	1400	8
1	3256416	1420	18
1	3356808	1440	15
1	3460115	1460	13
1	3565326	1480	13
1	3672972	1500	11
1	3782788	1520	13
1	3895065	1540	22
1	4009910	1560	16
1	4126383	1580	15
1	4245856	1600	13
1	4367346	1620	17
1	4491766	1640	12
1	4618171	1660	8
1	4745814	1680	12
1	4876608	1700	10
1	5008918	1720	21
1	5143869	1740	11
1	5281381	1760	11
1	5421106	1780	16
1	5563264	1800	14
1	5709104	1820	13
1	5857425	1840	15
1	6007862	1860	9
1	6161241	1880	15
1	6316887	1900	17
1	6474661	1920	21
1	6635864	1940	23
1	6799001	1960	19
1	6965582	1980	20
1	7134041	2000	10
2	145534	240	70
2	171142	260	76
2	198452	280	74
2	225949	300	86
2	253051	320	80
2	280223	340	79
2	308014	360	86
2	336354	380	84
2	364229	400	72
2	392770	420	71
2	422006	440	82
2	451481	460	94
2	481571	480	91
2	512536	500	90
2	543869	520	89
2	575987	540	93
2	608993	560	93
2	642581	580	93
2	677031	600	98
2	712543	620	98
2	749745	640	98
2	787620	660	108
2	826412	680	99
2	866332	700	100
2	907690	720	96
2	950875	740	109
2	994736	760	104
2	1039752	780	97
2	1086062	800	103
2	1133028	820	103
2	1181613	840	109
2	1231217	860	105
2	1282149	880	90
2	1333868	900	117
2	1386904	920	107
2	1441752	940	107
2	1498140	960	114
2	1555091	980	106
2	1613271	1000	118
2	1673992	1020	126
2	1735293	1040	117
2	1798467	1060	121
2	1863181	1080	128
2	1930055	1100	121
2	1998751	1120	127
2	2068335	1140	123
2	2139687	1160	124
2	2213498	1180	125
2	2289245	1200	120
2	2367504	1220	131
2	2447042	1240	132
2	2529028	1260	125
2	2612790	1280	136
2	2698717	1300	126
2	2786282	1320	127
2	2876665	1340	133
2	2968399	1360	140
2	3062072	1380	137
2	3158230	1400	143
2	3256416	1420	131
2	3356808	1440	135
2	3460115	1460	138
2	3565326	1480	142
2	3672972	1500	145
2	3782788	1520	145
2	3895065	1540	132
2	4009910	1560	142
2	4126383	1580	143
2	4245856	1600	151
2	4367346	1620	145
2	4491766	1640	156
2	4618171	1660	161
2	4745814	1680	155
2	4876608	1700	160
2	5008918	1720	145
2	5143869	1740	159
2	5281381	1760	161
2	5421106	1780	157
2	5563264	1800	159
2	5709104	1820	162
2	5857425	1840	163
2	6007862	1860	173
2	6161241	1880	164
2	6316887	1900	158
2	6474661	1920	157
2	6635864	1940	152
2	6799001	1960	161
2	6965582	1980	161
2	7134041	2000	180
3	145534	240	0
3	171142	260	1
3	198452	280	2
3	225949	300	1
3	253051	320	1
3	280223	340	2
3	308014	360	2
3	336354	380	1
3	364229	400	2
3	392770	420	0
3	422006	440	2
3	451481	460	2
3	481571	480	2
3	512536	500	1
3	543869	520	1
3	575987	540	0
3	608993	560	1
3	642581	580	3
3	677031	600	1
3	712543	620	1
3	749745	640	1
3	787620	660	1
3	826412	680	1
3	866332	700	5
3	907690	720	0
3	950875	740	4
3	994736	760	3
3	1039752	780	0
3	1086062	800	3
3	1133028	820	2
3	1181613	840	0
3	1231217	860	1
3	1282149	880	1
3	1333868	900	2
3	1386904	920	0
3	1441752	940	1
3	1498140	960	2
3	1555091	980	1
3	1613271	1000	0
3	1673992	1020	0
3	1735293	1040	6
3	1798467	1060	2
3	1863181	1080	3
3	1930055	1100	2
3	1998751	1120	2
3	2068335	1140	1
3	2139687	1160	2
3	2213498	1180	1
3	2289245	1200	1
3	2367504	1220	1
3	2447042	1240	1
3	2529028	1260	1
3	2612790	1280	2
3	2698717	1300	3
3	2786282	1320	2
3	2876665	1340	3
3	2968399	1360	1
3	3062072	1380	0
3	3158230	1400	2
3	3256416	1420	2
3	3356808	1440	1
3	3460115	1460	4
3	3565326	1480	3
3	3672972	1500	4
3	3782788	1520	5
3	3895065	1540	0
3	4009910	1560	3
3	4126383	1580	1
3	4245856	1600	2
3	4367346	1620	6
3	4491766	1640	0
3	4618171	1660	4
3	4745814	1680	3
3	4876608	1700	3
3	5008918	1720	1
3	5143869	1740	2
3	5281381	1760	2
3	5421106	1780	1
3	5563264	1800	6
3	5709104	1820	2
3	5857425	1840	3
3	6007862	1860	1
3	6161241	1880	3
3	6316887	1900	0
3	6474661	1920	2
3	6635864	1940	1
3	6799001	1960	1
3	6965582	1980	0
3	7134041	2000	3
4	145534	240	1.25
4	171142	260	1.6666666666667
4	198452	280	1.7142857142857
4	225949	300	1.25
4	253051	320	1.4
4	280223	340	1.6
4	308014	360	1.25
4	336354	380	1.4
4	364229	400	1.5555555555556
4	392770	420	1.5
4	422006	440	1.6666666666667
4	451481	460	1
4	481571	480	1.2
4	512536	500	1.4
4	543869	520	1.3333333333333
4	575987	540	1.4
4	608993	560	1.6
4	642581	580	1.1666666666667
4	677031	600	1
4	712543	620	1.1666666666667
4	749745	640	1.5
4	787620	660	1
4	826412	680	1.6
4	866332	700	1.2857142857143
4	907690	720	1.3333333333333
4	950875	740	1.6666666666667
4	994736	760	1.3333333333333
4	1039752	780	1.1818181818182
4	1086062	800	1.5
4	1133028	820	1.375
4	1181613	840	1.1428571428571
4	1231217	860	1.5
4	1282149	880	1.4
4	1333868	900	1.2
4	1386904	920	1.5
4	1441752	940	1.1
4	1498140	960	1.375
4	1555091	980	1.3636363636364
4	1613271	1000	1.3333333333333
4	1673992	1020	1.25
4	1735293	1040	1.375
4	1798467	1060	1.3333333333333
4	1863181	1080	1.2
4	1930055	1100	1.375
4	1998751	1120	1.5
4	2068335	1140	1.5714285714286
4	2139687	1160	1.1111111111111
4	2213498	1180	1.375
4	2289245	1200	1.6
4	2367504	1220	1.1428571428571
4	2447042	1240	1.4285714285714
4	2529028	1260	1.6
4	2612790	1280	1.5
4	2698717	1300	1.6
4	2786282	1320	1.5
4	2876665	1340	1.4444444444444
4	2968399	1360	1.5714285714286
4	3062072	1380	1.7142857142857
4	3158230	1400	1.1428571428571
4	3256416	1420	1.6363636363636
4	3356808	1440	1.5
4	3460115	1460	1.3
4	3565326	1480	1.625
4	3672972	1500	1.375
4	3782788	1520	1.4444444444444
4	3895065	1540	1.5714285714286
4	4009910	1560	1.3333333333333
4	4126383	1580	1.3636363636364
4	4245856	1600	1.625
4	4367346	1620	1.4166666666667
4	4491766	1640	1.5
4	4618171	1660	2
4	4745814	1680	1.3333333333333
4	4876608	1700	1.4285714285714
4	5008918	1720	1.75
4	5143869	1740	1.375
4	5281381	1760	1.2222222222222
4	5421106	1780	1.6
4	5563264	1800	1.5555555555556
4	5709104	1820	1.625
4	5857425	1840	1.5
4	6007862	1860	1.8
4	6161241	1880	1.3636363636364
4	6316887	1900	1.4166666666667
4	6474661	1920	1.75
4	6635864	1940	1.4375
4	6799001	1960	1.7272727272727
4	6965582	1980	1.6666666666667
4	7134041	2000	1.4285714285714
5	145534	240	0.5
5	171142	260	0.57735026918963
5	198452	280	0.48795003647427
5	225949	300	0.5
5	253051	320	0.54772255750517
5	280223	340	0.54772255750517
5	308014	360	0.5
5	336354	380	0.54772255750517
5	364229	400	0.52704627669473
5	392770	420	0.52704627669473
5	422006	440	0.51639777949432
5	451481	460	0
5	481571	480	0.44721359549996
5	512536	500	0.54772255750517
5	543869	520	0.51639777949432
5	575987	540	0.54772255750517
5	608993	560	0.54772255750517
5	642581	580	0.40824829046386
5	677031	600	0
5	712543	620	0.40824829046386
5	749745	640	0.54772255750517
5	787620	660	0
5	826412	680	0.89442719099992
5	866332	700	0.48795003647427
5	907690	720	0.5
5	950875	740	0.57735026918963
5	994736	760	0.51639777949432
5	1039752	780	0.40451991747795
5	1086062	800	0.53452248382485
5	1133028	820	0.51754916950677
5	1181613	840	0.37796447300923
5	1231217	860	0.53452248382485
5	1282149	880	0.50709255283711
5	1333868	900	0.44721359549996
5	1386904	920	0.53452248382485
5	1441752	940	0.31622776601684
5	1498140	960	0.51754916950677
5	1555091	980	0.50452497910951
5	1613271	1000	0.51639777949432
5	1673992	1020	0.5
5	1735293	1040	0.51754916950677
5	1798467	1060	0.51639777949432
5	1863181	1080	0.44721359549996
5	1930055	1100	0.51754916950677
5	1998751	1120	0.54772255750517
5	2068335	1140	0.53452248382485
5	2139687	1160	0.33333333333333
5	2213498	1180	0.51754916950677
5	2289245	1200	0.51639777949432
5	2367504	1220	0.37796447300923
5	2447042	1240	0.53452248382485
5	2529028	1260	0.6992058987801
5	2612790	1280	0.54772255750517
5	2698717	1300	0.51639777949432
5	2786282	1320	0.52704627669473
5	2876665	1340	0.52704627669473
5	2968399	1360	0.78679579246944
5	3062072	1380	0.48795003647427
5	3158230	1400	0.37796447300923
5	3256416	1420	0.50452497910951
5	3356808	1440	0.52704627669473
5	3460115	1460	0.48304589153965
5	3565326	1480	0.51754916950677
5	3672972	1500	0.51754916950677
5	3782788	1520	0.52704627669473
5	3895065	1540	0.5135525910131
5	4009910	1560	0.49236596391733
5	4126383	1580	0.50452497910951
5	4245856	1600	0.51754916950677
5	4367346	1620	0.51492865054444
5	4491766	1640	0.53452248382485
5	4618171	1660	0
5	4745814	1680	0.5
5	4876608	1700	0.53452248382485
5	5008918	1720	0.45226701686665
5	5143869	1740	0.51754916950677
5	5281381	1760	0.4409585518441
5	5421106	1780	0.6992058987801
5	5563264	1800	0.72648315725678
5	5709104	1820	0.74402380914284
5	5857425	1840	0.52704627669473
5	6007862	1860	0.44721359549996
5	6161241	1880	0.50452497910951
5	6316887	1900	0.51492865054444
5	6474661	1920	0.45226701686665
5	6635864	1940	0.51234753829798
5	6799001	1960	0.46709936649691
5	6965582	1980	0.65133894727893
5	7134041	2000	0.53452248382485
6	145534	240	0.25
6	171142	260	0.33333333333333
6	198452	280	0.23809523809524
6	225949	300	0.25
6	253051	320	0.3
6	280223	340	0.3
6	308014	360	0.25
6	336354	380	0.3
6	364229	400	0.27777777777778
6	392770	420	0.27777777777778
6	422006	440	0.26666666666667
6	451481	460	0
6	481571	480	0.2
6	512536	500	0.3
6	543869	520	0.26666666666667
6	575987	540	0.3
6	608993	560	0.3
6	642581	580	0.16666666666667
6	677031	600	0
6	712543	620	0.16666666666667
6	749745	640	0.3
6	787620	660	0
6	826412	680	0.8
6	866332	700	0.23809523809524
6	907690	720	0.25
6	950875	740	0.33333333333333
6	994736	760	0.26666666666667
6	1039752	780	0.16363636363636
6	1086062	800	0.28571428571429
6	1133028	820	0.26785714285714
6	1181613	840	0.14285714285714
6	1231217	860	0.28571428571429
6	1282149	880	0.25714285714286
6	1333868	900	0.2
6	1386904	920	0.28571428571429
6	1441752	940	0.1
6	1498140	960	0.26785714285714
6	1555091	980	0.25454545454545
6	1613271	1000	0.26666666666667
6	1673992	1020	0.25
6	1735293	1040	0.26785714285714
6	1798467	1060	0.26666666666667
6	1863181	1080	0.2
6	1930055	1100	0.26785714285714
6	1998751	1120	0.3
6	2068335	1140	0.28571428571429
6	2139687	1160	0.11111111111111
6	2213498	1180	0.26785714285714
6	2289245	1200	0.26666666666667
6	2367504	1220	0.14285714285714
6	2447042	1240	0.28571428571429
6	2529028	1260	0.48888888888889
6	2612790	1280	0.3
6	2698717	1300	0.26666666666667
6	2786282	1320	0.27777777777778
6	2876665	1340	0.27777777777778
6	2968399	1360	0.61904761904762
6	3062072	1380	0.23809523809524
6	3158230	1400	0.14285714285714
6	3256416	1420	0.25454545454545
6	3356808	1440	0.27777777777778
6	3460115	1460	0.23333333333333
6	3565326	1480	0.26785714285714
6	3672972	1500	0.26785714285714
6	3782788	1520	0.27777777777778
6	3895065	1540	0.26373626373626
6	4009910	1560	0.24242424242424
6	4126383	1580	0.25454545454545
6	4245856	1600	0.26785714285714
6	4367346	1620	0.26515151515152
6	4491766	1640	0.28571428571429
6	4618171	1660	0
6	4745814	1680	0.25
6	4876608	1700	0.28571428571429
6	5008918	1720	0.20454545454545
6	5143869	1740	0.26785714285714
6	5281381	1760	0.19444444444444
6	5421106	1780	0.48888888888889
6	5563264	1800	0.52777777777778
6	5709104	1820	0.55357142857143
6	5857425	1840	0.27777777777778
6	6007862	1860	0.2
6	6161241	1880	0.25454545454545
6	6316887	1900	0.26515151515152
6	6474661	1920	0.20454545454545
6	6635864	1940	0.2625
6	6799001	1960	0.21818181818182
6	6965582	1980	0.42424242424242
6	7134041	2000	0.28571428571429
7	145534	240	22.632911392405
7	171142	260	22.619047619048
7	198452	280	22.172043010753
7	225949	300	22.242105263158
7	253051	320	22.445652173913
7	280223	340	22.739130434783
7	308014	360	22.702127659574
7	336354	380	22.145833333333
7	364229	400	22.347368421053
7	392770	420	22.104166666667
7	422006	440	22.551020408163
7	451481	460	22.11
7	481571	480	22.196078431373
7	512536	500	22.509803921569
7	543869	520	22.883495145631
7	575987	540	22.733333333333
7	608993	560	23.228571428571
7	642581	580	23.32380952381
7	677031	600	23.407407407407
7	712543	620	24.481818181818
7	749745	640	24.693693693694
7	787620	660	25.099099099099
7	826412	680	25.875
7	866332	700	26.191304347826
7	907690	720	26.786324786325
7	950875	740	27.487179487179
7	994736	760	28.262711864407
7	1039752	780	28.636363636364
7	1086062	800	28.130081300813
7	1133028	820	28.934426229508
7	1181613	840	29.048387096774
7	1231217	860	29.564516129032
7	1282149	880	29.928571428571
7	1333868	900	30.0859375
7	1386904	920	30.460317460317
7	1441752	940	31.234375
7	1498140	960	31.477272727273
7	1555091	980	31.871212121212
7	1613271	1000	31.810606060606
7	1673992	1020	33.136363636364
7	1735293	1040	33.227941176471
7	1798467	1060	33.740740740741
7	1863181	1080	34.057971014493
7	1930055	1100	34.94964028777
7	1998751	1120	35.014084507042
7	2068335	1140	35.574468085106
7	2139687	1160	36.265734265734
7	2213498	1180	37.5625
7	2289245	1200	37.356164383562
7	2367504	1220	39.808219178082
7	2447042	1240	39.107382550336
7	2529028	1260	40.033112582781
7	2612790	1280	41.126666666667
7	2698717	1300	41.703947368421
7	2786282	1320	42.526315789474
7	2876665	1340	42.916129032258
7	2968399	1360	43.544303797468
7	3062072	1380	44.391025641026
7	3158230	1400	45.20253164557
7	3256416	1420	45.660377358491
7	3356808	1440	46.4625
7	3460115	1460	47.354037267081
7	3565326	1480	47.883435582822
7	3672972	1500	48.950920245399
7	3782788	1520	49.40119760479
7	3895065	1540	49.690476190476
7	4009910	1560	49.794117647059
7	4126383	1580	51.278106508876
7	4245856	1600	51.099415204678
7	4367346	1620	51.632183908046
7	4491766	1640	52.073863636364
7	4618171	1660	53.441860465116
7	4745814	1680	53.028409090909
7	4876608	1700	53.700564971751
7	5008918	1720	54.28813559322
7	5143869	1740	54.938202247191
7	5281381	1760	55.265193370166
7	5421106	1780	55.540983606557
7	5563264	1800	56.516483516484
7	5709104	1820	57.453551912568
7	5857425	1840	57.228723404255
7	6007862	1860	58.354838709677
7	6161241	1880	58.736842105263
7	6316887	1900	59.92513368984
7	6474661	1920	60.231578947368
7	6635864	1940	60.659685863874
7	6799001	1960	61.743455497382
7	6965582	1980	62.119170984456
7	7134041	2000	62.086294416244
8	145534	240	4.6469654150823
8	171142	260	4.2650294477853
8	198452	280	5.4744935360626
8	225949	300	4.5070058690549
8	253051	320	4.0229127560168
8	280223	340	3.8427027039197
8	308014	360	4.0049157622973
8	336354	380	5.2755227561709
8	364229	400	4.5820380605527
8	392770	420	4.366087413033
8	422006	440	4.3342853939107
8	451481	460	4.5790365534221
8	481571	480	4.452253219041
8	512536	500	3.5144541652986
8	543869	520	3.7266948266337
8	575987	540	4.1862105745362
8	608993	560	3.4592605447528
8	642581	580	3.1485504543154
8	677031	600	3.9150728070886
8	712543	620	3.508134238908
8	749745	640	4.1795884808148
8	787620	660	3.98851750758
8	826412	680	4.9431452218891
8	866332	700	5.33096820174
8	907690	720	6.6615586089519
8	950875	740	6.520016110377
8	994736	760	6.5976270871599
8	1039752	780	7.7222621901444
8	1086062	800	7.812305708633
8	1133028	820	7.484129439669
8	1181613	840	8.5042837973487
8	1231217	860	8.3249472622015
8	1282149	880	8.8743933394265
8	1333868	900	9.7907455449915
8	1386904	920	9.2274813843439
8	1441752	940	10.360041631114
8	1498140	960	11.544448392557
8	1555091	980	10.816586996125
8	1613271	1000	11.457943393361
8	1673992	1020	11.904051992977
8	1735293	1040	12.854724977547
8	1798467	1060	12.3179052802
8	1863181	1080	12.46294836644
8	1930055	1100	13.642603634484
8	1998751	1120	13.905958677653
8	2068335	1140	13.950030231689
8	2139687	1160	14.863203002932
8	2213498	1180	15.456557098612
8	2289245	1200	16.000749864337
8	2367504	1220	17.267196353498
8	2447042	1240	17.294015891927
8	2529028	1260	18.220653928456
8	2612790	1280	18.811069376731
8	2698717	1300	19.256318758518
8	2786282	1320	19.771190281433
8	2876665	1340	20.79396604497
8	2968399	1360	21.114668713066
8	3062072	1380	22.001341225377
8	3158230	1400	21.838072140732
8	3256416	1420	22.242572416535
8	3356808	1440	23.15191489968
8	3460115	1460	23.235051629459
8	3565326	1480	24.27298265334
8	3672972	1500	24.692379911445
8	3782788	1520	25.236963682395
8	3895065	1540	25.542954869875
8	4009910	1560	26.066119173047
8	4126383	1580	26.162487798792
8	4245856	1600	26.225863967322
8	4367346	1620	26.230025130075
8	4491766	1640	27.146590396031
8	4618171	1660	26.761281558821
8	4745814	1680	27.447701746573
8	4876608	1700	27.399312568465
8	5008918	1720	27.330500889859
8	5143869	1740	27.767428000569
8	5281381	1760	27.939743767042
8	5421106	1780	28.876912202794
8	5563264	1800	28.545151841309
8	5709104	1820	29.007327152349
8	5857425	1840	29.501669026801
8	6007862	1860	29.410660013102
8	6161241	1880	30.191876873232
8	6316887	1900	30.508147322862
8	6474661	1920	30.569879227963
8	6635864	1940	31.040116621894
8	6799001	1960	31.17543139611
8	6965582	1980	31.075031766825
8	7134041	2000	31.80164392129
9	145534	240	21.594287568971
9	171142	260	18.190476190476
9	198452	280	29.970079476391
9	225949	300	20.313101903695
9	253051	320	16.183827042523
9	280223	340	14.766364070712
9	308014	360	16.039350263098
9	336354	380	27.831140350877
9	364229	400	20.995072788354
9	392770	420	19.062719298246
9	422006	440	18.786029875868
9	451481	460	20.967575757576
9	481571	480	19.822558726461
9	512536	500	12.351388079984
9	543869	520	13.888254330859
9	575987	540	17.524358974359
9	608993	560	11.966483516484
9	642581	580	9.91336996337
9	677031	600	15.327795084804
9	712543	620	12.307005838198
9	749745	640	17.46895986896
9	787620	660	15.908271908272
9	826412	680	24.434684684685
9	866332	700	28.419221967963
9	907690	720	44.376363100501
9	950875	740	42.510610079576
9	994736	760	43.528683181226
9	1039752	780	59.633333333333
9	1086062	800	61.032120485139
9	1133028	820	56.01219346972
9	1181613	840	72.322842905848
9	1231217	860	69.304746918437
9	1282149	880	78.754857142857
9	1333868	900	95.858698326772
9	1386904	920	85.146412698413
9	1441752	940	107.33046259843
9	1498140	960	133.27428868841
9	1555091	980	116.99855424474
9	1613271	1000	131.28446680546
9	1673992	1020	141.70645385149
9	1735293	1040	165.24395424837
9	1798467	1060	151.73079049198
9	1863181	1080	155.32508198456
9	1930055	1100	186.12063392764
9	1998751	1120	193.37568674458
9	2068335	1140	194.60334346505
9	2139687	1160	220.91480350635
9	2213498	1180	238.90515734266
9	2289245	1200	256.02399622107
9	2367504	1220	298.15606991025
9	2447042	1240	299.08298567023
9	2529028	1260	331.99222958057
9	2612790	1280	353.8563310962
9	2698717	1300	370.80581212966
9	2786282	1320	390.89996514465
9	2876665	1340	432.38902387935
9	2968399	1360	445.82923486253
9	3062072	1380	484.05901571547
9	3158230	1400	476.90139482383
9	3256416	1420	494.7320277048
9	3356808	1440	536.01116352201
9	3460115	1460	539.8676242236
9	3565326	1480	589.17768688934
9	3672972	1500	609.71362569113
9	3782788	1520	636.9043359065
9	3895065	1540	652.44254348446
9	4009910	1560	679.44256874347
9	4126383	1580	684.47576782192
9	4245856	1600	687.79594083247
9	4367346	1620	688.01421832436
9	4491766	1640	736.93737012987
9	4618171	1660	716.16619067047
9	4745814	1680	753.37633116883
9	4876608	1700	750.72232922445
9	5008918	1720	746.9562788906
9	5143869	1740	771.03005776677
9	5281381	1760	780.62928176796
9	5421106	1780	833.87605836786
9	5563264	1800	814.82569364337
9	5709104	1820	841.42502852339
9	5857425	1840	870.34847536694
9	6007862	1860	864.98692240628
9	6161241	1880	911.54942912838
9	6316887	1900	930.74705307343
9	6474661	1920	934.51751601225
9	6635864	1940	963.4888399008
9	6799001	1960	971.90752273354
9	6965582	1980	965.65759930915
9	7134041	2000	1011.3445560966
10	145534	240	187.47895495679
10	171142	260	141.65842516741
10	198452	280	337.12634364633
10	225949	300	195.50286016492
10	253051	320	244.05417644489
10	280223	340	245.81603593038
10	308014	360	195.28676793611
10	336354	380	245.92305614414
10	364229	400	431.78525345528
10	392770	420	481.77763678012
10	422006	440	287.85606610562
10	451481	460	142.67595955498
10	481571	480	240.52014593036
10	512536	500	249.47182096734
10	543869	520	294.55913487983
10	575987	540	246.7223816435
10	608993	560	240.92043153238
10	642581	580	303.54745647035
10	677031	600	240.47383676263
10	712543	620	292.85460607184
10	749745	640	297.71646761218
10	787620	660	96.350829797261
10	826412	680	237.5893493964
10	866332	700	340.9260128376
10	907690	720	444.49171144641
10	950875	740	152.15908831237
10	994736	760	289.77203314655
10	1039752	780	536.10444834452
10	1086062	800	398.05981458512
10	1133028	820	382.87947270459
10	1181613	840	332.20791286136
10	1231217	860	394.02201159489
10	1282149	880	739.12250393224
10	1333868	900	241.15996561281
10	1386904	920	402.37486438836
10	1441752	940	494.28508562365
10	1498140	960	408.90351826178
10	1555091	980	549.06199019797
10	1613271	1000	300.10271246892
10	1673992	1020	196.5175898114
10	1735293	1040	388.12853723574
10	1798467	1060	294.6757402107
10	1863181	1080	241.61459934593
10	1930055	1100	386.98645027449
10	1998751	1120	302.50178546677
10	2068335	1140	347.13985237917
10	2139687	1160	437.33925488401
10	2213498	1180	399.61600076711
10	2289245	1200	497.43336734474
10	2367504	1220	347.5972208498
10	2447042	1240	353.69204443918
10	2529028	1260	495.34788009644
10	2612790	1280	301.48245307282
10	2698717	1300	496.36488048774
10	2786282	1320	488.61538064182
10	2876665	1340	447.58659581298
10	2968399	1360	346.10974004812
10	3062072	1380	348.09790345469
10	3158230	1400	347.9127962597
10	3256416	1420	533.40417876859
10	3356808	1440	495.7188738427
10	3460115	1460	495.02825171914
10	3565326	1480	397.03344334728
10	3672972	1500	403.48655685037
10	3782788	1520	447.16177934065
10	3895065	1540	691.48094207051
10	4009910	1560	594.91807919502
10	4126383	1580	547.43055953734
10	4245856	1600	394.46146652499
10	4367346	1620	614.30174268346
10	4491766	1640	397.61323276897
10	4618171	1660	199.77043247739
10	4745814	1680	442.93414956197
10	4876608	1700	357.44239828377
10	5008918	1720	596.72319362792
10	5143869	1740	403.53542321586
10	5281381	1760	459.15445513896
10	5421106	1780	499.2210198248
10	5563264	1800	448.22469579447
10	5709104	1820	404.08509646363
10	5857425	1840	501.81392353117
10	6007862	1860	249.76234407492
10	6161241	1880	560.62787772777
10	6316887	1900	602.18586365061
10	6474661	1920	602.70662079714
10	6635864	1940	827.51478594049
10	6799001	1960	551.48442311081
10	6965582	1980	612.16285229222
10	7134041	2000	353.6331309919
11	145534	240	46.869738739198
11	171142	260	47.219475055803
11	198452	280	48.16090623519
11	225949	300	48.875715041229
11	253051	320	48.810835288979
11	280223	340	49.163207186075
11	308014	360	48.821691984027
11	336354	380	49.184611228827
11	364229	400	47.976139272809
11	392770	420	48.177763678012
11	422006	440	47.976011017603
11	451481	460	47.558653184993
11	481571	480	48.104029186073
11	512536	500	49.894364193468
11	543869	520	49.093189146638
11	575987	540	49.344476328699
11	608993	560	48.184086306476
11	642581	580	50.591242745058
11	677031	600	48.094767352527
11	712543	620	48.809101011974
11	749745	640	49.619411268697
11	787620	660	48.17541489863
11	826412	680	47.517869879279
11	866332	700	48.703716119657
11	907690	720	49.38796793849
11	950875	740	50.719696104125
11	994736	760	48.295338857758
11	1039752	780	48.73676803132
11	1086062	800	49.757476823139
11	1133028	820	47.859934088074
11	1181613	840	47.458273265909
11	1231217	860	49.252751449362
11	1282149	880	49.274833595483
11	1333868	900	48.231993122562
11	1386904	920	50.296858048544
11	1441752	940	49.428508562365
11	1498140	960	51.112939782723
11	1555091	980	49.914726381634
11	1613271	1000	50.01711874482
11	1673992	1020	49.129397452849
11	1735293	1040	48.516067154467
11	1798467	1060	49.11262336845
11	1863181	1080	48.322919869185
11	1930055	1100	48.373306284312
11	1998751	1120	50.416964244462
11	2068335	1140	49.591407482738
11	2139687	1160	48.593250542668
11	2213498	1180	49.952000095888
11	2289245	1200	49.743336734474
11	2367504	1220	49.656745835686
11	2447042	1240	50.527434919883
11	2529028	1260	49.534788009644
11	2612790	1280	50.247075512137
11	2698717	1300	49.636488048774
11	2786282	1320	48.861538064182
11	2876665	1340	49.73184397922
11	2968399	1360	49.444248578303
11	3062072	1380	49.728271922099
11	3158230	1400	49.701828037099
11	3256416	1420	48.491288978962
11	3356808	1440	49.57188738427
11	3460115	1460	49.502825171914
11	3565326	1480	49.62918041841
11	3672972	1500	50.435819606297
11	3782788	1520	49.684642148962
11	3895065	1540	49.391495862179
11	4009910	1560	49.576506599585
11	4126383	1580	49.766414503394
11	4245856	1600	49.307683315624
11	4367346	1620	51.191811890288
11	4491766	1640	49.701654096121
11	4618171	1660	49.942608119347
11	4745814	1680	49.214905506886
11	4876608	1700	51.063199754824
11	5008918	1720	49.726932802327
11	5143869	1740	50.441927901983
11	5281381	1760	51.017161682107
11	5421106	1780	49.92210198248
11	5563264	1800	49.802743977163
11	5709104	1820	50.510637057954
11	5857425	1840	50.181392353117
11	6007862	1860	49.952468814984
11	6161241	1880	50.966170702524
11	6316887	1900	50.182155304217
11	6474661	1920	50.225551733095
11	6635864	1940	51.71967412128
11	6799001	1960	50.134947555528
11	6965582	1980	51.013571024351
11	7134041	2000	50.519018713129
12	145534	240	0.86565753842184
12	171142	260	1.5557528756262
12	198452	280	0.99265126094114
12	225949	300	1.9416023271747
12	253051	320	4.8870333893737
12	280223	340	2.4614299667244
12	308014	360	2.2686282414868
12	336354	380	2.6039969015702
12	364229	400	2.1365455972072
12	392770	420	1.4557742159354
12	422006	440	0.83250136978873
12	451481	460	1.8069938294495
12	481571	480	1.4384224010068
12	512536	500	2.8728366310766
12	543869	520	3.0139889618463
12	575987	540	2.9870055570601
12	608993	560	1.1831253279917
12	642581	580	5.2496381595445
12	677031	600	1.7604239889189
12	712543	620	3.354040924214
12	749745	640	2.1611392610578
12	787620	660	1.1595710176055
12	826412	680	0.58612045570293
12	866332	700	2.4313846907806
12	907690	720	3.4641091411374
12	950875	740	1.9373405331456
12	994736	760	3.2167112776211
12	1039752	780	2.8892208151535
12	1086062	800	3.1618760976768