version 2
run statisticRVV-129-20150325-12:51:54-24044
attr c 14
attr configname statisticRVV
attr datetime 20150325-12:51:54
attr experiment statisticRVV
attr inifile omnetpp.ini
attr iterationvars "$sc=\"erlangen-medium.launchd.xml\", $p=1/15, $c=14"
attr iterationvars2 "$sc=\"erlangen-medium.launchd.xml\", $p=1/15, $c=14, $repetition=9"
attr measurement "$sc=\"erlangen-medium.launchd.xml\", $p=1/15, $c=14"
attr network RSUExampleScenario
attr p 1/15
attr processid 24044
attr repetition 9
attr replication #9
attr resultdir results
attr runnumber 129
attr sc "\"erlangen-medium.launchd.xml\""
attr seedset 129

vector 0  RSUExampleScenario.rsu[0].appl  Number_CH  ETV
vector 1  RSUExampleScenario.rsu[0].appl  Number_ON  ETV
vector 2  RSUExampleScenario.rsu[0].appl  Number_FN  ETV
vector 3  RSUExampleScenario.rsu[0].appl  Number_CH_Losts  ETV
vector 4  RSUExampleScenario.rsu[0].appl  Mean_Cluster_Size  ETV
vector 5  RSUExampleScenario.rsu[0].appl  StdDev_Cluster_Size  ETV
vector 6  RSUExampleScenario.rsu[0].appl  Variance_Cluster_Size  ETV
vector 7  RSUExampleScenario.rsu[0].appl  Mean_Neighbors  ETV
vector 8  RSUExampleScenario.rsu[0].appl  StdDev_Neighbors  ETV
vector 9  RSUExampleScenario.rsu[0].appl  Variance_Neighbors  ETV
vector 10  RSUExampleScenario.rsu[0].appl  Total_CH_Utility  ETV
vector 11  RSUExampleScenario.rsu[0].appl  Mean_CH_Utility  ETV
vector 12  RSUExampleScenario.rsu[0].appl  StdDev_CH_Utility  ETV
vector 13  RSUExampleScenario.rsu[0].appl  Variance_CH_Utility  ETV
vector 14  RSUExampleScenario.rsu[0].appl  Total_exp_CH_Utility  ETV
vector 15  RSUExampleScenario.rsu[0].appl  Mean_exp_CH_Utility  ETV
vector 16  RSUExampleScenario.rsu[0].appl  StdDev_exp_CH_Utility  ETV
vector 17  RSUExampleScenario.rsu[0].appl  Variance_exp_CH_Utility  ETV
vector 18  RSUExampleScenario.rsu[0].appl  Total_ON_Utility  ETV
vector 19  RSUExampleScenario.rsu[0].appl  Mean_ON_Utility  ETV
vector 20  RSUExampleScenario.rsu[0].appl  StdDev_ON_Utility  ETV
vector 21  RSUExampleScenario.rsu[0].appl  Variance_ON_Utility  ETV
vector 22  RSUExampleScenario.rsu[0].appl  Total_exp_ON_Utility  ETV
vector 23  RSUExampleScenario.rsu[0].appl  Mean_exp_ON_Utility  ETV
vector 24  RSUExampleScenario.rsu[0].appl  StdDev_exp_ON_Utility  ETV
vector 25  RSUExampleScenario.rsu[0].appl  Variance_exp_ON_Utility  ETV
0	146548	240	3
0	172467	260	3
0	199781	280	3
0	227286	300	3
0	254879	320	2
0	282153	340	4
0	309173	360	7
0	336856	380	2
0	365086	400	3
0	393322	420	5
0	422659	440	2
0	452369	460	5
0	482637	480	4
0	513338	500	4
0	544919	520	3
0	577133	540	4
0	610134	560	8
0	643909	580	4
0	678218	600	3
0	714229	620	6
0	750842	640	6
0	788623	660	10
0	827572	680	5
0	868308	700	6
0	909567	720	5
0	952395	740	7
0	996588	760	4
0	1041638	780	6
0	1088112	800	8
0	1135309	820	4
0	1183760	840	6
0	1233654	860	8
0	1283426	880	2
0	1335485	900	8
0	1387908	920	7
0	1442381	940	6
0	1498576	960	2
0	1556398	980	5
0	1615492	1000	4
0	1675314	1020	8
0	1736881	1040	6
0	1800277	1060	9
0	1865160	1080	5
0	1931067	1100	8
0	1999105	1120	7
0	2069025	1140	5
0	2140475	1160	8
0	2213651	1180	7
0	2288489	1200	9
0	2365684	1220	8
0	2445209	1240	9
0	2527200	1260	5
0	2611409	1280	11
0	2697649	1300	4
0	2785150	1320	8
0	2874809	1340	7
0	2966494	1360	7
0	3060378	1380	7
0	3156822	1400	9
0	3255072	1420	5
0	3355237	1440	11
0	3458228	1460	7
0	3563649	1480	5
0	3672113	1500	9
0	3781231	1520	11
0	3893061	1540	9
0	4006208	1560	8
0	4123047	1580	12
0	4242131	1600	5
0	4363654	1620	10
0	4487151	1640	12
0	4612646	1660	12
0	4741229	1680	7
0	4872203	1700	7
0	5005159	1720	12
0	5139844	1740	8
0	5277692	1760	8
0	5418129	1780	14
0	5560713	1800	10
0	5706089	1820	13
0	5854336	1840	12
0	6005327	1860	12
0	6158834	1880	10
0	6315250	1900	12
0	6474026	1920	8
0	6636229	1940	10
0	6799910	1960	9
0	6967448	1980	6
0	7137334	2000	6
1	146548	240	4
1	172467	260	5
1	199781	280	4
1	227286	300	3
1	254879	320	2
1	282153	340	4
1	309173	360	8
1	336856	380	2
1	365086	400	6
1	393322	420	7
1	422659	440	2
1	452369	460	5
1	482637	480	6
1	513338	500	4
1	544919	520	3
1	577133	540	7
1	610134	560	11
1	643909	580	4
1	678218	600	5
1	714229	620	7
1	750842	640	6
1	788623	660	11
1	827572	680	8
1	868308	700	7
1	909567	720	5
1	952395	740	8
1	996588	760	5
1	1041638	780	7
1	1088112	800	13
1	1135309	820	5
1	1183760	840	8
1	1233654	860	13
1	1283426	880	2
1	1335485	900	11
1	1387908	920	12
1	1442381	940	9
1	1498576	960	4
1	1556398	980	8
1	1615492	1000	6
1	1675314	1020	11
1	1736881	1040	9
1	1800277	1060	11
1	1865160	1080	8
1	1931067	1100	10
1	1999105	1120	8
1	2069025	1140	6
1	2140475	1160	16
1	2213651	1180	11
1	2288489	1200	15
1	2365684	1220	11
1	2445209	1240	14
1	2527200	1260	8
1	2611409	1280	15
1	2697649	1300	4
1	2785150	1320	11
1	2874809	1340	11
1	2966494	1360	9
1	3060378	1380	11
1	3156822	1400	10
1	3255072	1420	8
1	3355237	1440	16
1	3458228	1460	11
1	3563649	1480	7
1	3672113	1500	11
1	3781231	1520	17
1	3893061	1540	15
1	4006208	1560	11
1	4123047	1580	16
1	4242131	1600	7
1	4363654	1620	15
1	4487151	1640	22
1	4612646	1660	15
1	4741229	1680	11
1	4872203	1700	9
1	5005159	1720	18
1	5139844	1740	11
1	5277692	1760	11
1	5418129	1780	19
1	5560713	1800	13
1	5706089	1820	19
1	5854336	1840	17
1	6005327	1860	15
1	6158834	1880	14
1	6315250	1900	17
1	6474026	1920	9
1	6636229	1940	17
1	6799910	1960	11
1	6967448	1980	9
1	7137334	2000	8
2	146548	240	72
2	172467	260	78
2	199781	280	86
2	227286	300	88
2	254879	320	90
2	282153	340	86
2	309173	360	77
2	336856	380	90
2	365086	400	87
2	393322	420	85
2	422659	440	95
2	452369	460	92
2	482637	480	92
2	513338	500	94
2	544919	520	98
2	577133	540	95
2	610134	560	88
2	643909	580	100
2	678218	600	102
2	714229	620	99
2	750842	640	99
2	788623	660	90
2	827572	680	100
2	868308	700	102
2	909567	720	105
2	952395	740	103
2	996588	760	109
2	1041638	780	105
2	1088112	800	102
2	1135309	820	113
2	1183760	840	109
2	1233654	860	105
2	1283426	880	121
2	1335485	900	107
2	1387908	920	108
2	1442381	940	116
2	1498576	960	127
2	1556398	980	118
2	1615492	1000	124
2	1675314	1020	115
2	1736881	1040	121
2	1800277	1060	118
2	1865160	1080	125
2	1931067	1100	123
2	1999105	1120	127
2	2069025	1140	131
2	2140475	1160	118
2	2213651	1180	127
2	2288489	1200	121
2	2365684	1220	128
2	2445209	1240	125
2	2527200	1260	138
2	2611409	1280	125
2	2697649	1300	145
2	2785150	1320	135
2	2874809	1340	136
2	2966494	1360	140
2	3060378	1380	139
2	3156822	1400	139
2	3255072	1420	146
2	3355237	1440	134
2	3458228	1460	144
2	3563649	1480	151
2	3672113	1500	144
2	3781231	1520	137
2	3893061	1540	143
2	4006208	1560	149
2	4123047	1580	142
2	4242131	1600	160
2	4363654	1620	148
2	4487151	1640	140
2	4612646	1660	148
2	4741229	1680	157
2	4872203	1700	161
2	5005159	1720	150
2	5139844	1740	160
2	5277692	1760	163
2	5418129	1780	150
2	5560713	1800	162
2	5706089	1820	154
2	5854336	1840	157
2	6005327	1860	162
2	6158834	1880	166
2	6315250	1900	161
2	6474026	1920	173
2	6636229	1940	166
2	6799910	1960	174
2	6967448	1980	180
2	7137334	2000	182
3	146548	240	0
3	172467	260	3
3	199781	280	3
3	227286	300	1
3	254879	320	2
3	282153	340	1
3	309173	360	0
3	336856	380	0
3	365086	400	2
3	393322	420	0
3	422659	440	0
3	452369	460	3
3	482637	480	2
3	513338	500	1
3	544919	520	2
3	577133	540	1
3	610134	560	2
3	643909	580	5
3	678218	600	3
3	714229	620	1
3	750842	640	1
3	788623	660	3
3	827572	680	2
3	868308	700	1
3	909567	720	4
3	952395	740	2
3	996588	760	0
3	1041638	780	1
3	1088112	800	1
3	1135309	820	1
3	1183760	840	0
3	1233654	860	3
3	1283426	880	1
3	1335485	900	2
3	1387908	920	0
3	1442381	940	1
3	1498576	960	3
3	1556398	980	2
3	1615492	1000	0
3	1675314	1020	5
3	1736881	1040	0
3	1800277	1060	1
3	1865160	1080	3
3	1931067	1100	2
3	1999105	1120	1
3	2069025	1140	2
3	2140475	1160	0
3	2213651	1180	1
3	2288489	1200	2
3	2365684	1220	0
3	2445209	1240	2
3	2527200	1260	5
3	2611409	1280	5
3	2697649	1300	1
3	2785150	1320	0
3	2874809	1340	6
3	2966494	1360	0
3	3060378	1380	2
3	3156822	1400	3
3	3255072	1420	4
3	3355237	1440	2
3	3458228	1460	3
3	3563649	1480	4
3	3672113	1500	3
3	3781231	1520	3
3	3893061	1540	0
3	4006208	1560	3
3	4123047	1580	2
3	4242131	1600	2
3	4363654	1620	2
3	4487151	1640	0
3	4612646	1660	3
3	4741229	1680	1
3	4872203	1700	6
3	5005159	1720	4
3	5139844	1740	1
3	5277692	1760	3
3	5418129	1780	0
3	5560713	1800	1
3	5706089	1820	3
3	5854336	1840	0
3	6005327	1860	0
3	6158834	1880	4
3	6315250	1900	3
3	6474026	1920	2
3	6636229	1940	3
3	6799910	1960	3
3	6967448	1980	2
3	7137334	2000	3
4	146548	240	1.3333333333333
4	172467	260	1.6666666666667
4	199781	280	1.3333333333333
4	227286	300	1
4	254879	320	1
4	282153	340	1
4	309173	360	1.1428571428571
4	336856	380	1
4	365086	400	2
4	393322	420	1.4
4	422659	440	1
4	452369	460	1
4	482637	480	1.5
4	513338	500	1
4	544919	520	1
4	577133	540	1.75
4	610134	560	1.375
4	643909	580	1
4	678218	600	1.6666666666667
4	714229	620	1.1666666666667
4	750842	640	1
4	788623	660	1.1
4	827572	680	1.6
4	868308	700	1.1666666666667
4	909567	720	1
4	952395	740	1.1428571428571
4	996588	760	1.25
4	1041638	780	1.1666666666667
4	1088112	800	1.625
4	1135309	820	1.25
4	1183760	840	1.3333333333333
4	1233654	860	1.625
4	1283426	880	1
4	1335485	900	1.375
4	1387908	920	1.7142857142857
4	1442381	940	1.5
4	1498576	960	2
4	1556398	980	1.6
4	1615492	1000	1.5
4	1675314	1020	1.375
4	1736881	1040	1.5
4	1800277	1060	1.2222222222222
4	1865160	1080	1.6
4	1931067	1100	1.25
4	1999105	1120	1.1428571428571
4	2069025	1140	1.2
4	2140475	1160	2
4	2213651	1180	1.5714285714286
4	2288489	1200	1.6666666666667
4	2365684	1220	1.375
4	2445209	1240	1.5555555555556
4	2527200	1260	1.6
4	2611409	1280	1.3636363636364
4	2697649	1300	1
4	2785150	1320	1.375
4	2874809	1340	1.5714285714286
4	2966494	1360	1.2857142857143
4	3060378	1380	1.5714285714286
4	3156822	1400	1.1111111111111
4	3255072	1420	1.6
4	3355237	1440	1.4545454545455
4	3458228	1460	1.5714285714286
4	3563649	1480	1.4
4	3672113	1500	1.2222222222222
4	3781231	1520	1.5454545454545
4	3893061	1540	1.6666666666667
4	4006208	1560	1.375
4	4123047	1580	1.3333333333333
4	4242131	1600	1.4
4	4363654	1620	1.5
4	4487151	1640	1.8333333333333
4	4612646	1660	1.25
4	4741229	1680	1.5714285714286
4	4872203	1700	1.2857142857143
4	5005159	1720	1.5
4	5139844	1740	1.375
4	5277692	1760	1.375
4	5418129	1780	1.3571428571429
4	5560713	1800	1.3
4	5706089	1820	1.4615384615385
4	5854336	1840	1.4166666666667
4	6005327	1860	1.25
4	6158834	1880	1.4
4	6315250	1900	1.4166666666667
4	6474026	1920	1.125
4	6636229	1940	1.7
4	6799910	1960	1.2222222222222
4	6967448	1980	1.5
4	7137334	2000	1.3333333333333
5	146548	240	0.57735026918963
5	172467	260	0.57735026918963
5	199781	280	0.57735026918963
5	227286	300	0
5	254879	320	0
5	282153	340	0
5	309173	360	0.37796447300923
5	336856	380	0
5	365086	400	1
5	393322	420	0.54772255750517
5	422659	440	0
5	452369	460	0
5	482637	480	0.57735026918963
5	513338	500	0
5	544919	520	0
5	577133	540	0.5
5	610134	560	0.51754916950677
5	643909	580	0
5	678218	600	0.57735026918963
5	714229	620	0.40824829046386
5	750842	640	0
5	788623	660	0.31622776601684
5	827572	680	0.54772255750517
5	868308	700	0.40824829046386
5	909567	720	0
5	952395	740	0.37796447300923
5	996588	760	0.5
5	1041638	780	0.40824829046386
5	1088112	800	0.51754916950677
5	1135309	820	0.5
5	1183760	840	0.51639777949432
5	1233654	860	0.74402380914284
5	1283426	880	0
5	1335485	900	0.51754916950677
5	1387908	920	0.48795003647427
5	1442381	940	0.54772255750517
5	1498576	960	0
5	1556398	980	0.54772255750517
5	1615492	1000	0.57735026918963
5	1675314	1020	0.51754916950677
5	1736881	1040	0.54772255750517
5	1800277	1060	0.4409585518441
5	1865160	1080	0.54772255750517
5	1931067	1100	0.46291004988628
5	1999105	1120	0.37796447300923
5	2069025	1140	0.44721359549996
5	2140475	1160	0.75592894601845
5	2213651	1180	0.53452248382485
5	2288489	1200	0.5
5	2365684	1220	0.51754916950677
5	2445209	1240	0.52704627669473
5	2527200	1260	0.54772255750517
5	2611409	1280	0.50452497910951
5	2697649	1300	0
5	2785150	1320	0.51754916950677
5	2874809	1340	0.53452248382485
5	2966494	1360	0.48795003647427
5	3060378	1380	0.53452248382485
5	3156822	1400	0.33333333333333
5	3255072	1420	0.54772255750517
5	3355237	1440	0.52223296786709
5	3458228	1460	0.53452248382485
5	3563649	1480	0.54772255750517
5	3672113	1500	0.4409585518441
5	3781231	1520	0.52223296786709
5	3893061	1540	0.5
5	4006208	1560	0.51754916950677
5	4123047	1580	0.49236596391733
5	4242131	1600	0.54772255750517
5	4363654	1620	0.52704627669473
5	4487151	1640	0.38924947208076
5	4612646	1660	0.45226701686665
5	4741229	1680	0.53452248382485
5	4872203	1700	0.48795003647427
5	5005159	1720	0.52223296786709
5	5139844	1740	0.51754916950677
5	5277692	1760	0.51754916950677
5	5418129	1780	0.49724515809885
5	5560713	1800	0.48304589153965
5	5706089	1820	0.51887452166277
5	5854336	1840	0.51492865054444
5	6005327	1860	0.45226701686665
5	6158834	1880	0.51639777949432
5	6315250	1900	0.51492865054444
5	6474026	1920	0.35355339059327
5	6636229	1940	0.48304589153965
5	6799910	1960	0.4409585518441
5	6967448	1980	0.54772255750517
5	7137334	2000	0.51639777949432
6	146548	240	0.33333333333333
6	172467	260	0.33333333333333
6	199781	280	0.33333333333333
6	227286	300	0
6	254879	320	0
6	282153	340	0
6	309173	360	0.14285714285714
6	336856	380	0
6	365086	400	1
6	393322	420	0.3
6	422659	440	0
6	452369	460	0
6	482637	480	0.33333333333333
6	513338	500	0
6	544919	520	0
6	577133	540	0.25
6	610134	560	0.26785714285714
6	643909	580	0
6	678218	600	0.33333333333333
6	714229	620	0.16666666666667
6	750842	640	0
6	788623	660	0.1
6	827572	680	0.3
6	868308	700	0.16666666666667
6	909567	720	0
6	952395	740	0.14285714285714
6	996588	760	0.25
6	1041638	780	0.16666666666667
6	1088112	800	0.26785714285714
6	1135309	820	0.25
6	1183760	840	0.26666666666667
6	1233654	860	0.55357142857143
6	1283426	880	0
6	1335485	900	0.26785714285714
6	1387908	920	0.23809523809524
6	1442381	940	0.3
6	1498576	960	0
6	1556398	980	0.3
6	1615492	1000	0.33333333333333
6	1675314	1020	0.26785714285714
6	1736881	1040	0.3
6	1800277	1060	0.19444444444444
6	1865160	1080	0.3
6	1931067	1100	0.21428571428571
6	1999105	1120	0.14285714285714
6	2069025	1140	0.2
6	2140475	1160	0.57142857142857
6	2213651	1180	0.28571428571429
6	2288489	1200	0.25
6	2365684	1220	0.26785714285714
6	2445209	1240	0.27777777777778
6	2527200	1260	0.3
6	2611409	1280	0.25454545454545
6	2697649	1300	0
6	2785150	1320	0.26785714285714
6	2874809	1340	0.28571428571429
6	2966494	1360	0.23809523809524
6	3060378	1380	0.28571428571429
6	3156822	1400	0.11111111111111
6	3255072	1420	0.3
6	3355237	1440	0.27272727272727
6	3458228	1460	0.28571428571429
6	3563649	1480	0.3
6	3672113	1500	0.19444444444444
6	3781231	1520	0.27272727272727
6	3893061	1540	0.25
6	4006208	1560	0.26785714285714
6	4123047	1580	0.24242424242424
6	4242131	1600	0.3
6	4363654	1620	0.27777777777778
6	4487151	1640	0.15151515151515
6	4612646	1660	0.20454545454545
6	4741229	1680	0.28571428571429
6	4872203	1700	0.23809523809524
6	5005159	1720	0.27272727272727
6	5139844	1740	0.26785714285714
6	5277692	1760	0.26785714285714
6	5418129	1780	0.24725274725275
6	5560713	1800	0.23333333333333
6	5706089	1820	0.26923076923077
6	5854336	1840	0.26515151515152
6	6005327	1860	0.20454545454545
6	6158834	1880	0.26666666666667
6	6315250	1900	0.26515151515152
6	6474026	1920	0.125
6	6636229	1940	0.23333333333333
6	6799910	1960	0.19444444444444
6	6967448	1980	0.3
6	7137334	2000	0.26666666666667
7	146548	240	22.924050632911
7	172467	260	22.593023255814
7	199781	280	22.279569892473
7	227286	300	22.574468085106
7	254879	320	22.63829787234
7	282153	340	22.47311827957
7	309173	360	22.663043478261
7	336856	380	22.404255319149
7	365086	400	22.125
7	393322	420	22.061855670103
7	422659	440	22.10101010101
7	452369	460	21.892156862745
7	482637	480	22.245098039216
7	513338	500	22.480392156863
7	544919	520	22.701923076923
7	577133	540	22.622641509434
7	610134	560	23.264150943396
7	643909	580	23.654205607477
7	678218	600	23.681818181818
7	714229	620	24.116071428571
7	750842	640	24.558558558559
7	788623	660	25.279279279279
7	827572	680	25.910714285714
7	868308	700	26.669565217391
7	909567	720	26.695652173913
7	952395	740	27.372881355932
7	996588	760	28.042372881356
7	1041638	780	28.649572649573
7	1088112	800	28.512195121951
7	1135309	820	29.22131147541
7	1183760	840	29.422764227642
7	1233654	860	29.68
7	1283426	880	29.896
7	1335485	900	30.333333333333
7	1387908	920	30.496062992126
7	1442381	940	30.618320610687
7	1498576	960	31.439393939394
7	1556398	980	32.145038167939
7	1615492	1000	32.514925373134
7	1675314	1020	33.278195488722
7	1736881	1040	33.073529411765
7	1800277	1060	33.869565217391
7	1865160	1080	34.057971014493
7	1931067	1100	34.510638297872
7	1999105	1120	35.302816901408
7	2069025	1140	35.80985915493
7	2140475	1160	37.077464788732
7	2213651	1180	37.262068965517
7	2288489	1200	37.931034482759
7	2365684	1220	38.544217687075
7	2445209	1240	39.666666666667
7	2527200	1260	40.2
7	2611409	1280	41.291390728477
7	2697649	1300	41.758169934641
7	2785150	1320	42.188311688312
7	2874809	1340	42.766233766234
7	2966494	1360	43.589743589744
7	3060378	1380	44.12101910828
7	3156822	1400	45.29746835443
7	3255072	1420	46.238993710692
7	3355237	1440	46.223602484472
7	3458228	1460	47.155279503106
7	3563649	1480	47.509202453988
7	3672113	1500	48.59756097561
7	3781231	1520	49.242424242424
7	3893061	1540	49.724550898204
7	4006208	1560	49.672619047619
7	4123047	1580	51.005917159763
7	4242131	1600	51.333333333333
7	4363654	1620	52.186046511628
7	4487151	1640	52.275862068966
7	4612646	1660	52.24
7	4741229	1680	53.165714285714
7	4872203	1700	53.745762711864
7	5005159	1720	54.077777777778
7	5139844	1740	55.067039106145
7	5277692	1760	55.164835164835
7	5418129	1780	55.917582417582
7	5560713	1800	55.972972972973
7	5706089	1820	56.891891891892
7	5854336	1840	57.623655913978
7	6005327	1860	57.888888888889
7	6158834	1880	58.531578947368
7	6315250	1900	59.278947368421
7	6474026	1920	60.326315789474
7	6636229	1940	60.916666666667
7	6799910	1960	61.407216494845
7	6967448	1980	61.54358974359
7	7137334	2000	62.688775510204
8	146548	240	4.9088411915194
8	172467	260	5.0628471575418
8	199781	280	4.3398196501243
8	227286	300	4.4685023391383
8	254879	320	4.2397277855146
8	282153	340	4.799437009215
8	309173	360	3.8007436343317
8	336856	380	4.0964688411325
8	365086	400	4.7732808974872
8	393322	420	4.9703588757706
8	422659	440	4.4823803568151
8	452369	460	4.8377780325251
8	482637	480	4.3972004471563
8	513338	500	4.4560124965537
8	544919	520	3.6440663504993
8	577133	540	4.7917644233944
8	610134	560	2.666554355227
8	643909	580	3.1295994189935
8	678218	600	4.1307346974783
8	714229	620	4.7868918910744
8	750842	640	3.9281841390941
8	788623	660	3.9684463897811
8	827572	680	4.6933987980985
8	868308	700	5.6688154942238
8	909567	720	5.5916195329048
8	952395	740	6.895801534725
8	996588	760	6.6812584768238
8	1041638	780	6.7304201837835
8	1088112	800	8.0381935145908
8	1135309	820	8.1316769590684
8	1183760	840	8.4475315339883
8	1233654	860	8.7975436454472
8	1283426	880	8.8206356292064
8	1335485	900	9.2364495343178
8	1387908	920	10.026848098463
8	1442381	940	10.139380966742
8	1498576	960	10.861555970632
8	1556398	980	11.180423920272
8	1615492	1000	11.526846776588
8	1675314	1020	11.819573765234
8	1736881	1040	12.347218821911
8	1800277	1060	13.2999237619
8	1865160	1080	13.536524322871
8	1931067	1100	13.819043289852
8	1999105	1120	14.618549101207
8	2069025	1140	14.585494153313
8	2140475	1160	15.059255980633
8	2213651	1180	15.677310519796
8	2288489	1200	16.259892361786
8	2365684	1220	16.993645586173
8	2445209	1240	17.166921574558
8	2527200	1260	18.326641040084
8	2611409	1280	18.667829512818
8	2697649	1300	19.469620783953
8	2785150	1320	19.634493284593
8	2874809	1340	20.30415528089
8	2966494	1360	20.861408047883
8	3060378	1380	21.954016722158
8	3156822	1400	21.954065970982
8	3255072	1420	22.724675463697
8	3355237	1440	23.466991486788
8	3458228	1460	23.245042215011
8	3563649	1480	24.404605945094
8	3672113	1500	24.728146331833
8	3781231	1520	25.135523282251
8	3893061	1540	25.440377893367
8	4006208	1560	26.089320783949
8	4123047	1580	26.109772172006
8	4242131	1600	26.691483550332
8	4363654	1620	26.720564666402
8	4487151	1640	26.605093021564
8	4612646	1660	26.975501870205
8	4741229	1680	27.259733502137
8	4872203	1700	27.761520880573
8	5005159	1720	27.858271703333
8	5139844	1740	27.960163830145
8	5277692	1760	28.442736398597
8	5418129	1780	28.503538961847
8	5560713	1800	29.307298473772
8	5706089	1820	29.278816893514
8	5854336	1840	29.702275453281
8	6005327	1860	29.765096890617
8	6158834	1880	29.985473601785
8	6315250	1900	30.604683373444
8	6474026	1920	30.455255445298
8	6636229	1940	30.839787542021
8	6799910	1960	31.320409169644
8	6967448	1980	31.613514946198
8	7137334	2000	31.962318784511
9	146548	240	24.096721843557
9	172467	260	25.632421340629
9	199781	280	18.834034595605
9	227286	300	19.967513154884
9	254879	320	17.975291695264
9	282153	340	23.034595605423
9	309173	360	14.445652173913
9	336856	380	16.781056966369
9	365086	400	22.784210526316
9	393322	420	24.704467353952
9	422659	440	20.091733663162
9	452369	460	23.404096291982
9	482637	480	19.335371772471
9	513338	500	19.856047369443
9	544919	520	13.279219566841
9	577133	540	22.961006289308
9	610134	560	7.1105121293801
9	643909	580	9.7943925233645
9	678218	600	17.062969140951
9	714229	620	22.914333976834
9	750842	640	15.430630630631
9	788623	660	15.748566748567
9	827572	680	22.027992277992
9	868308	700	32.135469107551
9	909567	720	31.266209000763
9	952395	740	47.552078806316
9	996588	760	44.63921483413
9	1041638	780	45.29855585028
9	1088112	800	64.612554978009
9	1135309	820	66.124170166644
9	1183760	840	71.360789017726
9	1233654	860	77.396774193548
9	1283426	880	77.803612903226
9	1335485	900	85.312
9	1387908	920	100.53768278965
9	1442381	940	102.80704638873
9	1498576	960	117.97339810317
9	1556398	980	125.00187903699
9	1615492	1000	132.86819661093
9	1675314	1020	139.7023239918
9	1736881	1040	152.45381263617
9	1800277	1060	176.88797207236
9	1865160	1080	183.23749074368
9	1931067	1100	190.96595744681
9	1999105	1120	213.70197782439
9	2069025	1140	212.73663969633
9	2140475	1160	226.78119069024
9	2213651	1180	245.7780651341
9	2288489	1200	264.38409961686
9	2365684	1220	288.78399030845
9	2445209	1240	294.70319634703
9	2527200	1260	335.86577181208
9	2611409	1280	348.48785871965
9	2697649	1300	379.06613347093
9	2785150	1320	385.51332654274
9	2874809	1340	412.25872167049
9	2966494	1360	435.19834574028
9	3060378	1380	481.97885023681
9	3156822	1400	481.98101265823
9	3255072	1420	516.41087493034
9	3355237	1440	550.69968944099
9	3458228	1460	540.33198757764
9	3563649	1480	595.5847913353
9	3672113	1500	611.48122100853
9	3781231	1520	631.79453067258
9	3893061	1540	647.21282735733
9	4006208	1560	680.65265896778
9	4123047	1580	681.72020287405
9	4242131	1600	712.43529411765
9	4363654	1620	713.98857609139
9	4487151	1640	707.83097468607
9	4612646	1660	727.67770114943
9	4741229	1680	743.09307060755
9	4872203	1700	770.70204160247
9	5005159	1720	776.08330229671
9	5139844	1740	781.77076140857
9	5277692	1760	808.98925384008
9	5418129	1780	812.45173334952
9	5560713	1800	858.91774383079
9	5706089	1820	857.2491186839
9	5854336	1840	882.22516710259
9	6005327	1860	885.9609929078
9	6158834	1880	899.12862712336
9	6315250	1900	936.64664438875
9	6474026	1920	927.52258423837
9	6636229	1940	951.092495637
9	6799910	1960	980.96803055392
9	6967448	1980	999.4143272535
9	7137334	2000	1021.5898220827
10	146548	240	140.62452508133
10	172467	260	149.49365332015
10	199781	280	145.82656189738
10	227286	300	140.24896405969
10	254879	320	98.417830582568
10	282153	340	198.5752248698
10	309173	360	338.29847004153
10	336856	380	96.424088519935
10	365086	400	141.30716382508
10	393322	420	242.12321795443
10	422659	440	95.324442370494
10	452369	460	234.71093317541
10	482637	480	200.33062725475
10	513338	500	201.32808541135
10	544919	520	152.6158341631
10	577133	540	197.63724336312
10	610134	560	388.38147992817
10	643909	580	203.49301149747
10	678218	600	145.35977831239
10	714229	620	298.27764883223
10	750842	640	290.37853100011
10	788623	660	496.18632919226
10	827572	680	243.18355217533
10	868308	700	297.74938200872
10	909567	720	237.191322746
10	952395	740	350.45877798014
10	996588	760	195.18039306041
10	1041638	780	300.09670942631
10	1088112	800	401.18284211499
10	1135309	820	197.20238209577
10	1183760	840	292.00809023055
10	1233654	860	387.52691200717
10	1283426	880	101.3848422318
10	1335485	900	394.86947791101
10	1387908	920	352.45122879084
10	1442381	940	300.47085036455
10	1498576	960	108.63465293313
10	1556398	980	248.64732010165
10	1615492	1000	188.72476734615
10	1675314	1020	392.20910390639
10	1736881	1040	309.72606401165
10	1800277	1060	436.94588286189
10	1865160	1080	252.75400588812
10	1931067	1100	384.96244029308
10	1999105	1120	346.82919085856
10	2069025	1140	251.83843572547
10	2140475	1160	398.86468682383
10	2213651	1180	349.71814327146
10	2288489	1200	454.76761773199
10	2365684	1220	397.36121497522
10	2445209	1240	441.38822148717
10	2527200	1260	250.14740608664
10	2611409	1280	545.94458195693
10	2697649	1300	196.68328511882
10	2785150	1320	398.41869644314
10	2874809	1340	342.59892809165
10	2966494	1360	360.98499259446
10	3060378	1380	347.29466456171
10	3156822	1400	444.8768767751
10	3255072	1420	243.62035431858
10	3355237	1440	549.56766046264
10	3458228	1460	346.71080850267
10	3563649	1480	243.68878814848
10	3672113	1500	452.80341758447
10	3781231	1520	557.88493730278
10	3893061	1540	438.34201862087
10	4006208	1560	411.37769737349
10	4123047	1580	606.58138145467
10	4242131	1600	255.24669775535
10	4363654	1620	504.35582380366
10	4487151	1640	607.90917599759
10	4612646	1660	603.315063081
10	4741229	1680	351.37664867904
10	4872203	1700	346.95857395408
10	5005159	1720	596.48834593461
10	5139844	1740	396.42946484708
10	5277692	1760	407.11577165938
10	5418129	1780	708.44034231931
10	5560713	1800	494.21697832016
10	5706089	1820	654.81854017961
10	5854336	1840	601.75117418863
10	6005327	1860	625.38572858293
10	6158834	1880	501.63142653108
10	6315250	1900	608.46863840687
10	6474026	1920	399.91190980199
10	6636229	1940	507.57228851916
10	6799910	1960	464.35739409863
10	6967448	1980	303.1563775732
10	7137334	2000	305.30191759447
11	146548	240	46.874841693776
11	172467	260	49.831217773384
11	199781	280	48.608853965793
11	227286	300	46.749654686564
11	254879	320	49.208915291284
11	282153	340	49.643806217449
11	309173	360	48.328352863076
11	336856	380	48.212044259968
11	365086	400	47.102387941695
11	393322	420	48.424643590886
11	422659	440	47.662221185247
11	452369	460	46.942186635081
11	482637	480	50.082656813687
11	513338	500	50.332021352837
11	544919	520	50.871944721032
11	577133	540	49.40931084078
11	610134	560	48.547684991021
11	643909	580	50.873252874368
11	678218	600	48.453259437465
11	714229	620	49.712941472039
11	750842	640	48.396421833351
11	788623	660	49.618632919226
11	827572	680	48.636710435065
11	868308	700	49.624897001453
11	909567	720	47.4382645492
11	952395	740	50.065539711448
11	996588	760	48.795098265104
11	1041638	780	50.016118237718
11	1088112	800	50.147855264374
11	1135309	820	49.300595523944
11	1183760	840	48.668015038425
11	1233654	860	48.440864000897
11	1283426	880	50.692421115898
11	1335485	900	49.358684738877
11	1387908	920	50.350175541548
11	1442381	940	50.078475060758
11	1498576	960	54.317326466567
11	1556398	980	49.72946402033
11	1615492	1000	47.181191836538
11	1675314	1020	49.026137988299
11	1736881	1040	51.621010668609
11	1800277	1060	48.549542540209
11	1865160	1080	50.550801177623
11	1931067	1100	48.120305036635
11	1999105	1120	49.547027265508
11	2069025	1140	50.367687145094
11	2140475	1160	49.858085852979
11	2213651	1180	49.959734753065
11	2288489	1200	50.529735303555
11	2365684	1220	49.670151871902
11	2445209	1240	49.043135720797
11	2527200	1260	50.029481217329
11	2611409	1280	49.631325632448
11	2697649	1300	49.170821279705
11	2785150	1320	49.802337055393
11	2874809	1340	48.942704013092
11	2966494	1360	51.569284656352
11	3060378	1380	49.613523508815
11	3156822	1400	49.430764086122
11	3255072	1420	48.724070863716
11	3355237	1440	49.960696405695
11	3458228	1460	49.530115500382
11	3563649	1480	48.737757629696
11	3672113	1500	50.311490842719
11	3781231	1520	50.716812482071
11	3893061	1540	48.704668735652
11	4006208	1560	51.422212171686
11	4123047	1580	50.548448454556
11	4242131	1600	51.049339551071
11	4363654	1620	50.435582380366
11	4487151	1640	50.659097999799
11	4612646	1660	50.27625525675
11	4741229	1680	50.196664097005
11	4872203	1700	49.565510564869
11	5005159	1720	49.707362161217
11	5139844	1740	49.553683105884
11	5277692	1760	50.889471457422
11	5418129	1780	50.602881594236
11	5560713	1800	49.421697832016
11	5706089	1820	50.370656936893
11	5854336	1840	50.145931182386
11	6005327	1860	52.115477381911
11	6158834	1880	50.163142653108
11	6315250	1900	50.705719867239
11	6474026	1920	49.988988725249
11	6636229	1940	50.757228851916
11	6799910	1960	51.595266010959
11	6967448	1980	50.526062928866
11	7137334	2000	50.883652932411
12	146548	240	1.372743749035
12	172467	260	4.1206131380279
12	199781	280	1.6538088145212
12	227286	300	1.3229830857426
12	254879	320	3.214254176186
12	282153	340	2.0786413790898
12	309173	360	1.9407524215081
12	336856	380	0.33946823993759
12	365086	400	1.16104644742
12	393322	420	2.2478711099691
12	422659	440	0.61795404057301
12	452369	460	1.2191137489477
12	482637	480	3.2985272997498
12	513338	500	1.3350826227055
12	544919	520	2.7115681054083
12	577133	540	2.6967241015716
12	610134	560	4.1922794463551
12	643909	580	5.2584001534639
12	678218	600	2.0368406408653
12	714229	620	2.0087434972907
12	750842	640	2.7236944075299
12	788623	660	2.5559415166087
12	827572	680	3.0476098196118
12	868308	700	4.2384565378599
12	909567	720	2.2210538940281
12	952395	740	3.4303561081574
12	996588	760	2.3703457271885
12	1041638	780	2.350024717766
12	1088112	800	2.6116752822534
12	1135309	820	2.616782439404
12	1183760	840	1.9654536487444
12	1233654	860	1.9259000086905
12	1283426	880	0.49414337326655
12	1335485	900	1.7619459729687
12	1387908	920	1.9771563177734
12	1442381	940	3.1301350869071
12	1498576	960	1.6879823731377
12	1556398	980	1.7673750200791
12	1615492	1000	1.1267693709734
12	1675314	1020	2.2244168396298
12	1736881	1040	4.2241266195286