file 70871 1427313123                                           
version 2
run statisticRVV-170-20150325-20:04:05-9408
attr c 11
attr configname statisticRVV
attr datetime 20150325-20:04:05
attr experiment statisticRVV
attr inifile omnetpp.ini
attr iterationvars "$sc=\"erlangen-medium.launchd.xml\", $p=1/10, $c=11"
attr iterationvars2 "$sc=\"erlangen-medium.launchd.xml\", $p=1/10, $c=11, $repetition=0"
attr measurement "$sc=\"erlangen-medium.launchd.xml\", $p=1/10, $c=11"
attr network RSUExampleScenario
attr p 1/10
attr processid 9408
attr repetition 0
attr replication #0
attr resultdir results
attr runnumber 170
attr sc "\"erlangen-medium.launchd.xml\""
attr seedset 170

vector 0  RSUExampleScenario.rsu[0].appl  Number_CH  ETV
vector 1  RSUExampleScenario.rsu[0].appl  Number_ON  ETV
vector 2  RSUExampleScenario.rsu[0].appl  Number_FN  ETV
vector 3  RSUExampleScenario.rsu[0].appl  Number_CH_Losts  ETV
vector 4  RSUExampleScenario.rsu[0].appl  Mean_Cluster_Size  ETV
vector 5  RSUExampleScenario.rsu[0].appl  StdDev_Cluster_Size  ETV
vector 6  RSUExampleScenario.rsu[0].appl  Variance_Cluster_Size  ETV
vector 7  RSUExampleScenario.rsu[0].appl  Mean_Neighbors  ETV
vector 8  RSUExampleScenario.rsu[0].appl  StdDev_Neighbors  ETV
vector 9  RSUExampleScenario.rsu[0].appl  Variance_Neighbors  ETV
vector 10  RSUExampleScenario.rsu[0].appl  Total_CH_Utility  ETV
vector 11  RSUExampleScenario.rsu[0].appl  Mean_CH_Utility  ETV
vector 12  RSUExampleScenario.rsu[0].appl  StdDev_CH_Utility  ETV
vector 13  RSUExampleScenario.rsu[0].appl  Variance_CH_Utility  ETV
vector 14  RSUExampleScenario.rsu[0].appl  Total_exp_CH_Utility  ETV
vector 15  RSUExampleScenario.rsu[0].appl  Mean_exp_CH_Utility  ETV
vector 16  RSUExampleScenario.rsu[0].appl  StdDev_exp_CH_Utility  ETV
vector 17  RSUExampleScenario.rsu[0].appl  Variance_exp_CH_Utility  ETV
vector 18  RSUExampleScenario.rsu[0].appl  Total_ON_Utility  ETV
vector 19  RSUExampleScenario.rsu[0].appl  Mean_ON_Utility  ETV
vector 20  RSUExampleScenario.rsu[0].appl  StdDev_ON_Utility  ETV
vector 21  RSUExampleScenario.rsu[0].appl  Variance_ON_Utility  ETV
vector 22  RSUExampleScenario.rsu[0].appl  Total_exp_ON_Utility  ETV
vector 23  RSUExampleScenario.rsu[0].appl  Mean_exp_ON_Utility  ETV
vector 24  RSUExampleScenario.rsu[0].appl  StdDev_exp_ON_Utility  ETV
vector 25  RSUExampleScenario.rsu[0].appl  Variance_exp_ON_Utility  ETV
0	2373 1589 145511 6917807 240 2000 89 3 23 960 11714
1	3962 1614 145511 6917807 240 2000 89 5 33 1359 23607
2	5576 1684 145511 6917807 240 2000 89 67 177 10074 1205424
3	7260 1537 145511 6917807 240 2000 89 0 8 282 1174
4	8797 2429 145511 6917807 240 2000 89 1 1.8333333333333 126.93644047955 183.69933036692
5	11226 2742 145511 6917807 240 2000 89 0 0.75277265270908 44.015283531798 22.611733043433
6	13968 2684 145511 6917807 240 2000 89 0 0.56666666666667 22.611733043433 6.2707917047453
7	16652 2705 145511 6917807 240 2000 89 21.80612244898 60.964285714286 3336.2087364531 139702.49040681
8	19357 2771 145511 6917807 240 2000 89 3.2890371794441 31.327665094744 1355.4056305567 28939.734929132
9	22128 2774 145511 6917807 240 2000 89 10.817765567766 981.42260028845 28939.734929132 18598045.211952
10	24902 2863 145511 6917807 240 2000 89 142.42916073028 1166.3587184924 47644.168523482 29040455.33581
11	27765 2861 145511 6917807 240 2000 89 47.074023784405 52.088746598208 4401.6907949827 217795.02508384
12	30626 2866 145511 6917807 240 2000 89 0.10639177641879 4.5755957332469 207.66317426647 532.35903302518
13	33492 2860 145511 6917807 240 2000 89 0.011319210089545 20.936076314107 532.35903302518 4279.7290944968
14	36352 2867 145511 6917807 240 2000 89 269.08202615153 1231.6727821368 56506.663100334 39543883.600712
15	39219 2860 145511 6917807 240 2000 89 44.780839413907 46.435258221894 4050.5431056242 184356.63769154
16	42079 2905 145511 6917807 240 2000 89 0.26755421888105 1.9190016465546 89.777574045797 100.97204476872
17	44984 2905 145511 6917807 240 2000 89 0.071585260041048 3.6825673194791 100.97204476872 163.64709800792
18	47889 2867 145511 6917807 240 2000 89 1531.9873276956 5832.2552392721 321820.80437281 1298095848.8653
19	50756 2864 145511 6917807 240 2000 89 47.611534570245 51.304877194548 4437.6447297623 221368.5023802
20	53620 2861 145511 6917807 240 2000 89 1.3259783546839 3.8549702588925 248.38970551662 705.0568754618
21	56481 2860 145511 6917807 240 2000 89 1.7582185970902 14.860795696946 705.0568754618 5941.7528265612
22	59341 2868 145511 6917807 240 2000 89 3272.6752250836 8481.7616821336 506959.37284317 3052418927.7228
23	62209 2859 145511 6917807 240 2000 89 44.831167466899 45.755183336905 4051.200508748 184411.05663738
24	65068 2900 145511 6917807 240 2000 89 0.43574084371352 1.379751302882 90.996621665099 96.397301686797
25	67968 2903 145511 6917807 240 2000 89 0.18987008288017 1.9037136578045 96.397301686796 117.65357673473
