file 71078 1427379305                                           
version 2
run statisticRVV-203-20150326-02:01:13-24380
attr c 9
attr configname statisticRVV
attr datetime 20150326-02:01:13
attr experiment statisticRVV
attr inifile omnetpp.ini
attr iterationvars "$sc=\"erlangen-medium.launchd.xml\", $p=1/8, $c=9"
attr iterationvars2 "$sc=\"erlangen-medium.launchd.xml\", $p=1/8, $c=9, $repetition=3"
attr measurement "$sc=\"erlangen-medium.launchd.xml\", $p=1/8, $c=9"
attr network RSUExampleScenario
attr p 1/8
attr processid 24380
attr repetition 3
attr replication #3
attr resultdir results
attr runnumber 203
attr sc "\"erlangen-medium.launchd.xml\""
attr seedset 203
vector 0  RSUExampleScenario.rsu[0].appl  Number_CH  ETV
0	2367 1607 145015 7134633 240 2000 89 5 24 1233 18843
vector 1  RSUExampleScenario.rsu[0].appl  Number_ON  ETV
1	3974 1620 145015 7134633 240 2000 89 8 35 1739 37869
vector 2  RSUExampleScenario.rsu[0].appl  Number_FN  ETV
2	5594 1677 145015 7134633 240 2000 89 58 161 9606 1093836
vector 3  RSUExampleScenario.rsu[0].appl  Number_CH_Losts  ETV
3	7271 1539 145015 7134633 240 2000 89 0 11 338 1650
vector 4  RSUExampleScenario.rsu[0].appl  Mean_Cluster_Size  ETV
4	8810 2457 145015 7134633 240 2000 89 1.1428571428571 1.8333333333333 125.39836570304 178.18392405157
vector 5  RSUExampleScenario.rsu[0].appl  StdDev_Cluster_Size  ETV
5	11267 2828 145015 7134633 240 2000 89 0.37796447300923 0.89442719099992 45.295639217523 23.56424536151
vector 6  RSUExampleScenario.rsu[0].appl  Variance_Cluster_Size  ETV
6	14095 2756 145015 7134633 240 2000 89 0.14285714285714 0.8 23.564245361509 7.0395998106625
vector 7  RSUExampleScenario.rsu[0].appl  Mean_Neighbors  ETV
7	16851 2724 145015 7134633 240 2000 89 21.868686868687 61.984693877551 3396.0092036358 144696.17605544
vector 8  RSUExampleScenario.rsu[0].appl  StdDev_Neighbors  ETV
8	19575 2773 145015 7134633 240 2000 89 2.7783077985676 31.576748180283 1401.942403239 30623.340827141
vector 9  RSUExampleScenario.rsu[0].appl  Variance_Neighbors  ETV
9	22348 2772 145015 7134633 240 2000 89 7.7189942235814 997.09102564103 30623.340827141 20355990.799622
vector 10  RSUExampleScenario.rsu[0].appl  Total_CH_Utility  ETV
10	25120 2866 145015 7134633 240 2000 89 242.3265625372 1210.4674111327 61392.188310406 46936335.408343
vector 11  RSUExampleScenario.rsu[0].appl  Mean_CH_Utility  ETV
11	27986 2863 145015 7134633 240 2000 89 47.276118553074 51.635671581499 4418.9639358645 219483.35360991
vector 12  RSUExampleScenario.rsu[0].appl  StdDev_CH_Utility  ETV
12	30849 2864 145015 7134633 240 2000 89 1.0163328983308 3.9060554063855 208.59653880548 520.7336801934
vector 13  RSUExampleScenario.rsu[0].appl  Variance_CH_Utility  ETV
13	33713 2859 145015 7134633 240 2000 89 1.0329325602295 15.257268837753 520.7336801934 3850.6186716081
vector 14  RSUExampleScenario.rsu[0].appl  Total_exp_CH_Utility  ETV
14	36572 2863 145015 7134633 240 2000 89 313.32547403134 1417.9735076022 71460.037037547 62507985.303126
vector 15  RSUExampleScenario.rsu[0].appl  Mean_exp_CH_Utility  ETV
15	39435 2864 145015 7134633 240 2000 89 44.691613899353 46.145787869577 4050.4014977975 184342.9805397
vector 16  RSUExampleScenario.rsu[0].appl  StdDev_exp_CH_Utility  ETV
16	42299 2901 145015 7134633 240 2000 89 0.24271003825911 1.7800115258093 91.275927163707 99.39532971916
vector 17  RSUExampleScenario.rsu[0].appl  Variance_exp_CH_Utility  ETV
17	45200 2895 145015 7134633 240 2000 89 0.058908162671738 3.1684410320139 99.39532971916 134.95614422932
vector 18  RSUExampleScenario.rsu[0].appl  Total_ON_Utility  ETV
18	48095 2863 145015 7134633 240 2000 89 1289.5378336598 6090.0681866413 349046.03722713 1538259054.8694
vector 19  RSUExampleScenario.rsu[0].appl  Mean_ON_Utility  ETV
19	50958 2861 145015 7134633 240 2000 89 47.728941567567 51.122473636742 4439.6043619617 221522.55595804
vector 20  RSUExampleScenario.rsu[0].appl  StdDev_ON_Utility  ETV
20	53819 2859 145015 7134633 240 2000 89 1.4655937856867 3.9519108284243 238.4112866935 653.6741765513
vector 21  RSUExampleScenario.rsu[0].appl  Variance_ON_Utility  ETV
21	56678 2865 145015 7134633 240 2000 89 2.1479651446436 15.617599195817 653.6741765513 5217.1327096697
vector 22  RSUExampleScenario.rsu[0].appl  Total_exp_ON_Utility  ETV
22	59543 2857 145015 7134633 240 2000 89 2820.5081869181 8110.029737996 500747.56462696 2970058754.5586
vector 23  RSUExampleScenario.rsu[0].appl  Mean_exp_ON_Utility  ETV
23	62400 2868 145015 7134633 240 2000 89 44.769971220922 45.849889032667 4052.3582826447 184516.45832076
vector 24  RSUExampleScenario.rsu[0].appl  StdDev_exp_ON_Utility  ETV
24	65268 2906 145015 7134633 240 2000 89 0.38978574023457 1.5537724998317 91.979194518317 99.097776669258
vector 25  RSUExampleScenario.rsu[0].appl  Variance_exp_ON_Utility  ETV
25	68174 2904 145015 7134633 240 2000 89 0.15193292329021 2.4142089812333 99.097776669258 127.04176350419
