file 70897 1427311458                                           
version 2
run statisticRVV-169-20150325-19:45:11-8496
attr c 10
attr configname statisticRVV
attr datetime 20150325-19:45:11
attr experiment statisticRVV
attr inifile omnetpp.ini
attr iterationvars "$sc=\"erlangen-medium.launchd.xml\", $p=1/10, $c=10"
attr iterationvars2 "$sc=\"erlangen-medium.launchd.xml\", $p=1/10, $c=10, $repetition=9"
attr measurement "$sc=\"erlangen-medium.launchd.xml\", $p=1/10, $c=10"
attr network RSUExampleScenario
attr p 1/10
attr processid 8496
attr repetition 9
attr replication #9
attr resultdir results
attr runnumber 169
attr sc "\"erlangen-medium.launchd.xml\""
attr seedset 169

vector 0  RSUExampleScenario.rsu[0].appl  Number_CH  ETV
vector 1  RSUExampleScenario.rsu[0].appl  Number_ON  ETV
vector 2  RSUExampleScenario.rsu[0].appl  Number_FN  ETV
vector 3  RSUExampleScenario.rsu[0].appl  Number_CH_Losts  ETV
vector 4  RSUExampleScenario.rsu[0].appl  Mean_Cluster_Size  ETV
vector 5  RSUExampleScenario.rsu[0].appl  StdDev_Cluster_Size  ETV
vector 6  RSUExampleScenario.rsu[0].appl  Variance_Cluster_Size  ETV
vector 7  RSUExampleScenario.rsu[0].appl  Mean_Neighbors  ETV
vector 8  RSUExampleScenario.rsu[0].appl  StdDev_Neighbors  ETV
vector 9  RSUExampleScenario.rsu[0].appl  Variance_Neighbors  ETV
vector 10  RSUExampleScenario.rsu[0].appl  Total_CH_Utility  ETV
vector 11  RSUExampleScenario.rsu[0].appl  Mean_CH_Utility  ETV
vector 12  RSUExampleScenario.rsu[0].appl  StdDev_CH_Utility  ETV
vector 13  RSUExampleScenario.rsu[0].appl  Variance_CH_Utility  ETV
vector 14  RSUExampleScenario.rsu[0].appl  Total_exp_CH_Utility  ETV
vector 15  RSUExampleScenario.rsu[0].appl  Mean_exp_CH_Utility  ETV
vector 16  RSUExampleScenario.rsu[0].appl  StdDev_exp_CH_Utility  ETV
vector 17  RSUExampleScenario.rsu[0].appl  Variance_exp_CH_Utility  ETV
vector 18  RSUExampleScenario.rsu[0].appl  Total_ON_Utility  ETV
vector 19  RSUExampleScenario.rsu[0].appl  Mean_ON_Utility  ETV
vector 20  RSUExampleScenario.rsu[0].appl  StdDev_ON_Utility  ETV
vector 21  RSUExampleScenario.rsu[0].appl  Variance_ON_Utility  ETV
vector 22  RSUExampleScenario.rsu[0].appl  Total_exp_ON_Utility  ETV
vector 23  RSUExampleScenario.rsu[0].appl  Mean_exp_ON_Utility  ETV
vector 24  RSUExampleScenario.rsu[0].appl  StdDev_exp_ON_Utility  ETV
vector 25  RSUExampleScenario.rsu[0].appl  Variance_exp_ON_Utility  ETV
0	2373 1596 145240 7147788 240 2000 89 2 21 1061 14605
1	3969 1611 145240 7147788 240 2000 89 2 31 1472 28666
2	5580 1683 145240 7147788 240 2000 89 68 163 10008 1175988
3	7263 1537 145240 7147788 240 2000 89 0 7 229 865
4	8800 2534 145240 7147788 240 2000 89 1 1.6666666666667 122.41381216822 170.20737867844
5	11334 2706 145240 7147788 240 2000 89 0 1 43.081257219218 22.000565069605
6	14040 2675 145240 7147788 240 2000 89 0 1 22.000565069605 6.3470132971721
7	16715 2688 145240 7147788 240 2000 89 21.894736842105 62.682051282051 3403.3104097981 145496.60552977
8	19403 2772 145240 7147788 240 2000 89 3.1222643703785 31.485087877552 1398.3635045592 30627.901048787
9	22175 2759 145240 7147788 240 2000 89 9.7485347985348 991.31075865715 30627.901048787 20436803.480959
10	24934 2859 145240 7147788 240 2000 89 92.488469588967 1073.3836156516 52881.584584908 36587037.527256
11	27793 2863 145240 7147788 240 2000 89 46.244234794484 51.488287999045 4409.01511742 218539.65443509
12	30656 2865 145240 7147788 240 2000 89 0.76135409227707 4.4487288521873 203.62977530836 508.64411748532
13	33521 2870 145240 7147788 240 2000 89 0.57966005382705 19.791188400283 508.64411748532 3915.0172078091
14	36391 2862 145240 7147788 240 2000 89 134.30582682305 1191.2496644646 58776.935337409 44575316.90707
15	39253 2850 145240 7147788 240 2000 89 44.52919524198 46.341067259497 4051.0812659276 184408.03067084
16	42103 2907 145240 7147788 240 2000 89 0.14793140166076 2.1250460544593 90.052580351051 101.7628655528
17	45010 2910 145240 7147788 240 2000 89 0.021883699597318 4.5158207335729 101.76286555279 167.13911541199
18	47920 2859 145240 7147788 240 2000 89 1605.1335561234 6399.6404231918 337187.91411026 1463100551.6653
19	50779 2863 145240 7147788 240 2000 89 47.397951942491 51.066929367818 4439.3427096792 221518.09003357
20	53642 2861 145240 7147788 240 2000 89 1.4045714813039 3.3819497672748 238.46544103477 655.21723281455
21	56503 2862 145240 7147788 240 2000 89 1.9728210460923 11.43758422837 655.21723281455 5241.6817732917
22	59365 2867 145240 7147788 240 2000 89 3227.4301309772 8105.3301623814 511659.69418983 3087988197.9633
23	62232 2866 145240 7147788 240 2000 89 44.825418485795 45.771198344108 4051.9305147034 184477.02019884
24	65098 2900 145240 7147788 240 2000 89 0.4342128841108 1.5500174385382 91.44448417305 97.869689488292
25	67998 2899 145240 7147788 240 2000 89 0.18854082872782 2.4025540597726 97.869689488292 124.36337370799
