version 2
run statisticRVV-133-20150327-06:25:12-12412
attr c 15
attr configname statisticRVV
attr datetime 20150327-06:25:12
attr experiment statisticRVV
attr inifile omnetpp.ini
attr iterationvars "$sc=\"erlangen-medium.launchd.xml\", $p=1/15, $c=15"
attr iterationvars2 "$sc=\"erlangen-medium.launchd.xml\", $p=1/15, $c=15, $repetition=3"
attr measurement "$sc=\"erlangen-medium.launchd.xml\", $p=1/15, $c=15"
attr network RSUExampleScenario
attr p 1/15
attr processid 12412
attr repetition 3
attr replication #3
attr resultdir results
attr runnumber 133
attr sc "\"erlangen-medium.launchd.xml\""
attr seedset 133

vector 0  RSUExampleScenario.rsu[0].appl  Number_CH  ETV
vector 1  RSUExampleScenario.rsu[0].appl  Number_ON  ETV
vector 2  RSUExampleScenario.rsu[0].appl  Number_FN  ETV
vector 3  RSUExampleScenario.rsu[0].appl  Number_CH_Losts  ETV
vector 4  RSUExampleScenario.rsu[0].appl  Number_CH_Losts  ETV
vector 5  RSUExampleScenario.rsu[0].appl  Mean_Cluster_Size  ETV
vector 6  RSUExampleScenario.rsu[0].appl  StdDev_Cluster_Size  ETV
vector 7  RSUExampleScenario.rsu[0].appl  Variance_Cluster_Size  ETV
vector 8  RSUExampleScenario.rsu[0].appl  Mean_Neighbors  ETV
vector 9  RSUExampleScenario.rsu[0].appl  StdDev_Neighbors  ETV
vector 10  RSUExampleScenario.rsu[0].appl  Variance_Neighbors  ETV
vector 11  RSUExampleScenario.rsu[0].appl  Total_CH_Utility  ETV
vector 12  RSUExampleScenario.rsu[0].appl  Mean_CH_Utility  ETV
vector 13  RSUExampleScenario.rsu[0].appl  StdDev_CH_Utility  ETV
vector 14  RSUExampleScenario.rsu[0].appl  Variance_CH_Utility  ETV
vector 15  RSUExampleScenario.rsu[0].appl  Total_exp_CH_Utility  ETV
vector 16  RSUExampleScenario.rsu[0].appl  Mean_exp_CH_Utility  ETV
vector 17  RSUExampleScenario.rsu[0].appl  StdDev_exp_CH_Utility  ETV
vector 18  RSUExampleScenario.rsu[0].appl  Variance_exp_CH_Utility  ETV
vector 19  RSUExampleScenario.rsu[0].appl  Total_ON_Utility  ETV
vector 20  RSUExampleScenario.rsu[0].appl  Mean_ON_Utility  ETV
vector 21  RSUExampleScenario.rsu[0].appl  StdDev_ON_Utility  ETV
vector 22  RSUExampleScenario.rsu[0].appl  Variance_ON_Utility  ETV
vector 23  RSUExampleScenario.rsu[0].appl  Total_exp_ON_Utility  ETV
vector 24  RSUExampleScenario.rsu[0].appl  Mean_exp_ON_Utility  ETV
vector 25  RSUExampleScenario.rsu[0].appl  StdDev_exp_ON_Utility  ETV
vector 26  RSUExampleScenario.rsu[0].appl  Variance_exp_ON_Utility  ETV
0	144859	240	3
0	170740	260	5
0	197626	280	7
0	225077	300	4
0	252097	320	8
0	279383	340	6
0	307036	360	7
0	334751	380	9
0	362567	400	4
0	391033	420	14
0	419969	440	5
0	449494	460	3
0	479289	480	9
0	509794	500	7
0	541033	520	11
0	573103	540	10
0	605899	560	12
0	639223	580	8
0	673649	600	2
0	708697	620	5
0	744890	640	9
0	782356	660	7
0	820525	680	5
0	860296	700	6
0	901228	720	4
0	943774	740	13
0	987342	760	9
0	1031756	780	7
0	1077744	800	8
0	1124740	820	8
0	1172314	840	8
0	1221628	860	11
0	1271958	880	12
0	1323570	900	6
0	1376365	920	6
0	1430413	940	9
0	1485888	960	12
0	1542691	980	8
0	1600789	1000	8
0	1660429	1020	7
0	1721171	1040	11
0	1783833	1060	9
0	1848611	1080	7
0	1914247	1100	10
0	1981772	1120	7
0	2051137	1140	7
0	2123227	1160	10
0	2197322	1180	5
0	2272676	1200	7
0	2349548	1220	12
0	2428463	1240	10
0	2509242	1260	6
0	2592366	1280	12
0	2677082	1300	17
0	2763628	1320	11
0	2852609	1340	7
0	2942916	1360	7
0	3035399	1380	9
0	3130094	1400	12
0	3226812	1420	16
0	3325311	1440	7
0	3426378	1460	10
0	3530607	1480	7
0	3637085	1500	11
0	3745257	1520	11
0	3856455	1540	11
0	3969584	1560	15
0	4084532	1580	13
0	4201884	1600	7
0	4322423	1620	15
0	4444568	1640	8
0	4568458	1660	18
0	4695313	1680	6
0	4823870	1700	7
0	4954830	1720	12
0	5088356	1740	11
0	5224754	1760	9
0	5362767	1780	7
0	5503690	1800	7
0	5647553	1820	10
0	5794116	1840	14
0	5944274	1860	10
0	6095936	1880	14
0	6250089	1900	8
0	6406687	1920	10
0	6566169	1940	15
0	6728194	1960	11
0	6892834	1980	10
0	7060220	2000	13
1	144859	240	39
1	170740	260	41
1	197626	280	75
1	225077	300	47
1	252097	320	57
1	279383	340	52
1	307036	360	75
1	334751	380	79
1	362567	400	44
1	391033	420	81
1	419969	440	54
1	449494	460	45
1	479289	480	75
1	509794	500	53
1	541033	520	74
1	573103	540	92
1	605899	560	88
1	639223	580	87
1	673649	600	29
1	708697	620	56
1	744890	640	79
1	782356	660	74
1	820525	680	62
1	860296	700	75
1	901228	720	60
1	943774	740	101
1	987342	760	83
1	1031756	780	77
1	1077744	800	71
1	1124740	820	84
1	1172314	840	106
1	1221628	860	93
1	1271958	880	111
1	1323570	900	71
1	1376365	920	69
1	1430413	940	84
1	1485888	960	110
1	1542691	980	106
1	1600789	1000	98
1	1660429	1020	69
1	1721171	1040	89
1	1783833	1060	83
1	1848611	1080	76
1	1914247	1100	116
1	1981772	1120	100
1	2051137	1140	87
1	2123227	1160	108
1	2197322	1180	62
1	2272676	1200	80
1	2349548	1220	92
1	2428463	1240	107
1	2509242	1260	77
1	2592366	1280	99
1	2677082	1300	119
1	2763628	1320	130
1	2852609	1340	98
1	2942916	1360	83
1	3035399	1380	88
1	3130094	1400	126
1	3226812	1420	127
1	3325311	1440	82
1	3426378	1460	117
1	3530607	1480	75
1	3637085	1500	104
1	3745257	1520	132
1	3856455	1540	106
1	3969584	1560	148
1	4084532	1580	143
1	4201884	1600	92
1	4322423	1620	142
1	4444568	1640	110
1	4568458	1660	142
1	4695313	1680	78
1	4823870	1700	81
1	4954830	1720	134
1	5088356	1740	131
1	5224754	1760	129
1	5362767	1780	91
1	5503690	1800	96
1	5647553	1820	132
1	5794116	1840	149
1	5944274	1860	132
1	6095936	1880	142
1	6250089	1900	102
1	6406687	1920	116
1	6566169	1940	158
1	6728194	1960	132
1	6892834	1980	105
1	7060220	2000	146
2	144859	240	35
2	170740	260	40
2	197626	280	9
2	225077	300	43
2	252097	320	27
2	279383	340	35
2	307036	360	13
2	334751	380	7
2	362567	400	49
2	391033	420	2
2	419969	440	38
2	449494	460	52
2	479289	480	17
2	509794	500	43
2	541033	520	18
2	573103	540	4
2	605899	560	4
2	639223	580	11
2	673649	600	79
2	708697	620	48
2	744890	640	21
2	782356	660	31
2	820525	680	44
2	860296	700	33
2	901228	720	52
2	943774	740	2
2	987342	760	26
2	1031756	780	36
2	1077744	800	43
2	1124740	820	30
2	1172314	840	9
2	1221628	860	20
2	1271958	880	3
2	1323570	900	49
2	1376365	920	54
2	1430413	940	37
2	1485888	960	9
2	1542691	980	17
2	1600789	1000	28
2	1660429	1020	59
2	1721171	1040	36
2	1783833	1060	45
2	1848611	1080	55
2	1914247	1100	12
2	1981772	1120	33
2	2051137	1140	47
2	2123227	1160	25
2	2197322	1180	80
2	2272676	1200	60
2	2349548	1220	42
2	2428463	1240	33
2	2509242	1260	66
2	2592366	1280	40
2	2677082	1300	15
2	2763628	1320	12
2	2852609	1340	50
2	2942916	1360	65
2	3035399	1380	58
2	3130094	1400	20
2	3226812	1420	14
2	3325311	1440	72
2	3426378	1460	33
2	3530607	1480	82
2	3637085	1500	48
2	3745257	1520	22
2	3856455	1540	51
2	3969584	1560	5
2	4084532	1580	12
2	4201884	1600	72
2	4322423	1620	16
2	4444568	1640	56
2	4568458	1660	14
2	4695313	1680	92
2	4823870	1700	87
2	4954830	1720	33
2	5088356	1740	36
2	5224754	1760	41
2	5362767	1780	83
2	5503690	1800	79
2	5647553	1820	42
2	5794116	1840	23
2	5944274	1860	44
2	6095936	1880	32
2	6250089	1900	80
2	6406687	1920	63
2	6566169	1940	17
2	6728194	1960	48
2	6892834	1980	79
2	7060220	2000	36
3	144859	240	0
3	170740	260	0
3	197626	280	0
3	225077	300	0
3	252097	320	1
3	279383	340	0
3	307036	360	0
3	334751	380	0
3	362567	400	0
3	391033	420	0
3	419969	440	0
3	449494	460	1
3	479289	480	1
3	509794	500	0
3	541033	520	1
3	573103	540	0
3	605899	560	0
3	639223	580	0
3	673649	600	0
3	708697	620	0
3	744890	640	0
3	782356	660	0
3	820525	680	0
3	860296	700	0
3	901228	720	0
3	943774	740	0
3	987342	760	0
3	1031756	780	0
3	1077744	800	0
3	1124740	820	0
3	1172314	840	0
3	1221628	860	0
3	1271958	880	0
3	1323570	900	1
3	1376365	920	0
3	1430413	940	0
3	1485888	960	0
3	1542691	980	0
3	1600789	1000	0
3	1660429	1020	0
3	1721171	1040	0
3	1783833	1060	0
3	1848611	1080	0
3	1914247	1100	1
3	1981772	1120	0
3	2051137	1140	0
3	2123227	1160	0
3	2197322	1180	2
3	2272676	1200	0
3	2349548	1220	1
3	2428463	1240	0
3	2509242	1260	0
3	2592366	1280	0
3	2677082	1300	0
3	2763628	1320	0
3	2852609	1340	0
3	2942916	1360	0
3	3035399	1380	1
3	3130094	1400	0
3	3226812	1420	1
3	3325311	1440	0
3	3426378	1460	0
3	3530607	1480	0
3	3637085	1500	1
3	3745257	1520	0
3	3856455	1540	2
3	3969584	1560	0
3	4084532	1580	0
3	4201884	1600	0
3	4322423	1620	0
3	4444568	1640	0
3	4568458	1660	0
3	4695313	1680	0
3	4823870	1700	0
3	4954830	1720	0
3	5088356	1740	0
3	5224754	1760	0
3	5362767	1780	0
3	5503690	1800	0
3	5647553	1820	0
3	5794116	1840	0
3	5944274	1860	0
3	6095936	1880	0
3	6250089	1900	0
3	6406687	1920	0
3	6566169	1940	0
3	6728194	1960	0
3	6892834	1980	1
3	7060220	2000	0
4	144859	240	35
4	170740	260	39
4	197626	280	8
4	225077	300	43
4	252097	320	26
4	279383	340	35
4	307036	360	13
4	334751	380	7
4	362567	400	49
4	391033	420	2
4	419969	440	38
4	449494	460	50
4	479289	480	15
4	509794	500	43
4	541033	520	17
4	573103	540	4
4	605899	560	4
4	639223	580	11
4	673649	600	79
4	708697	620	48
4	744890	640	21
4	782356	660	31
4	820525	680	44
4	860296	700	33
4	901228	720	52
4	943774	740	2
4	987342	760	26
4	1031756	780	36
4	1077744	800	43
4	1124740	820	30
4	1172314	840	9
4	1221628	860	20
4	1271958	880	3
4	1323570	900	48
4	1376365	920	53
4	1430413	940	37
4	1485888	960	9
4	1542691	980	17
4	1600789	1000	27
4	1660429	1020	59
4	1721171	1040	36
4	1783833	1060	45
4	1848611	1080	55
4	1914247	1100	11
4	1981772	1120	33
4	2051137	1140	46
4	2123227	1160	25
4	2197322	1180	78
4	2272676	1200	60
4	2349548	1220	41
4	2428463	1240	33
4	2509242	1260	65
4	2592366	1280	40
4	2677082	1300	15
4	2763628	1320	12
4	2852609	1340	49
4	2942916	1360	65
4	3035399	1380	57
4	3130094	1400	19
4	3226812	1420	13
4	3325311	1440	72
4	3426378	1460	33
4	3530607	1480	82
4	3637085	1500	47
4	3745257	1520	22
4	3856455	1540	48
4	3969584	1560	5
4	4084532	1580	12
4	4201884	1600	72
4	4322423	1620	16
4	4444568	1640	55
4	4568458	1660	14
4	4695313	1680	92
4	4823870	1700	87
4	4954830	1720	33
4	5088356	1740	36
4	5224754	1760	41
4	5362767	1780	83
4	5503690	1800	79
4	5647553	1820	42
4	5794116	1840	23
4	5944274	1860	44
4	6095936	1880	32
4	6250089	1900	80
4	6406687	1920	63
4	6566169	1940	17
4	6728194	1960	48
4	6892834	1980	78
4	7060220	2000	36
5	144859	240	13
5	170740	260	8.2
5	197626	280	10.714285714286
5	225077	300	11.75
5	252097	320	7.125
5	279383	340	8.6666666666667
5	307036	360	10.714285714286
5	334751	380	8.7777777777778
5	362567	400	11
5	391033	420	5.7857142857143
5	419969	440	10.8
5	449494	460	15
5	479289	480	8.3333333333333
5	509794	500	7.5714285714286
5	541033	520	6.7272727272727
5	573103	540	9.2
5	605899	560	7.3333333333333
5	639223	580	10.875
5	673649	600	14.5
5	708697	620	11.2
5	744890	640	8.7777777777778
5	782356	660	10.571428571429
5	820525	680	12.4
5	860296	700	12.5
5	901228	720	15
5	943774	740	7.7692307692308
5	987342	760	9.2222222222222
5	1031756	780	11
5	1077744	800	8.875
5	1124740	820	10.5
5	1172314	840	13.25
5	1221628	860	8.4545454545455
5	1271958	880	9.25
5	1323570	900	11.833333333333
5	1376365	920	11.5
5	1430413	940	9.3333333333333
5	1485888	960	9.1666666666667
5	1542691	980	13.25
5	1600789	1000	12.25
5	1660429	1020	9.8571428571429
5	1721171	1040	8.0909090909091
5	1783833	1060	9.2222222222222
5	1848611	1080	10.857142857143
5	1914247	1100	11.6
5	1981772	1120	14.285714285714
5	2051137	1140	12.428571428571
5	2123227	1160	10.8
5	2197322	1180	12.4
5	2272676	1200	11.428571428571
5	2349548	1220	7.6666666666667
5	2428463	1240	10.7
5	2509242	1260	12.833333333333
5	2592366	1280	8.25
5	2677082	1300	7
5	2763628	1320	11.818181818182
5	2852609	1340	14
5	2942916	1360	11.857142857143
5	3035399	1380	9.7777777777778
5	3130094	1400	10.5
5	3226812	1420	7.9375
5	3325311	1440	11.714285714286
5	3426378	1460	11.7
5	3530607	1480	10.714285714286
5	3637085	1500	9.4545454545455
5	3745257	1520	12
5	3856455	1540	9.6363636363636
5	3969584	1560	9.8666666666667
5	4084532	1580	11
5	4201884	1600	13.142857142857
5	4322423	1620	9.4666666666667
5	4444568	1640	13.75
5	4568458	1660	7.8888888888889
5	4695313	1680	13
5	4823870	1700	11.571428571429
5	4954830	1720	11.166666666667
5	5088356	1740	11.909090909091
5	5224754	1760	14.333333333333
5	5362767	1780	13
5	5503690	1800	13.714285714286
5	5647553	1820	13.2
5	5794116	1840	10.642857142857
5	5944274	1860	13.2
5	6095936	1880	10.142857142857
5	6250089	1900	12.75
5	6406687	1920	11.6
5	6566169	1940	10.533333333333
5	6728194	1960	12
5	6892834	1980	10.5
5	7060220	2000	11.230769230769
6	144859	240	1.7320508075689
6	170740	260	4.4944410108488
6	197626	280	3.3022358947782
6	225077	300	5.2519837521962
6	252097	320	4.5806269065645
6	279383	340	6.0221812216726
6	307036	360	3.5923198500081
6	334751	380	4.3525216190669
6	362567	400	4.8989794855664
6	391033	420	4.2819580608835
6	419969	440	4.6583258795408
6	449494	460	0
6	479289	480	3.9370039370059
6	509794	500	4.7559486560567
6	541033	520	4.8185248591433
6	573103	540	3.3266599866332
6	605899	560	2.9336088024924
6	639223	580	4.4541313086039
6	673649	600	0.70710678118655
6	708697	620	4.7116875957559
6	744890	640	4.9187848544579
6	782356	660	4.1173269183271
6	820525	680	3.1304951684997
6	860296	700	2.7386127875258
6	901228	720	0
6	943774	740	4.1863636996373
6	987342	760	5.8476015976163
6	1031756	780	3.5118845842842
6	1077744	800	4.0861263528467
6	1124740	820	4.4721359549996
6	1172314	840	2.5495097567964
6	1221628	860	4.2038942984722
6	1271958	880	3.414541097877
6	1323570	900	4.1673332800085
6	1376365	920	2.4289915602982
6	1430413	940	5.7008771254957
6	1485888	960	3.5376760048302
6	1542691	980	2.3754698783308
6	1600789	1000	1.8322507626258
6	1660429	1020	5.6103645582253
6	1721171	1040	3.7001228480834
6	1783833	1060	4.6844897741851
6	1848611	1080	5.0473944244719
6	1914247	1100	2.7162065049951
6	1981772	1120	0.95118973121134
6	2051137	1140	3.5523298860111
6	2123227	1160	3.6147844564603
6	2197322	1180	3.7148351242013
6	2272676	1200	4.8599431703516
6	2349548	1220	4.4991581704164
6	2428463	1240	4.571651780265
6	2509242	1260	2.1369760566433
6	2592366	1280	5.3278854751546
6	2677082	1300	4.1382363393117
6	2763628	1320	4.6865377800287
6	2852609	1340	1.8257418583506
6	2942916	1360	2.0354009783964
6	3035399	1380	5.0194067821252
6	3130094	1400	3.8019133938775
6	3226812	1420	4.1226003121008
6	3325311	1440	4.0708019567929
6	3426378	1460	3.1287200080686
6	3530607	1480	3.4982989063394
6	3637085	1500	3.9588795476406
6	3745257	1520	3.3466401061363
6	3856455	1540	4.8015149124568
6	3969584	1560	4.1553178779326
6	4084532	1580	3
6	4201884	1600	1.3451854182691
6	4322423	1620	5.4098675276449
6	4444568	1640	2.5495097567964
6	4568458	1660	4.5229986004717
6	4695313	1680	1.897366596101
6	4823870	1700	4.6496287614225
6	4954830	1720	4.4072942293705
6	5088356	1740	3.7270509911871
6	5224754	1760	0.70710678118655
6	5362767	1780	3.605551275464
6	5503690	1800	3.401680257083
6	5647553	1820	1.6865480854231
6	5794116	1840	3.4553669037543
6	5944274	1860	2.2010098692292
6	6095936	1880	4.521013209399
6	6250089	1900	1.9820624179302
6	6406687	1920	4.4271887242357
6	6566169	1940	4.5334733871923
6	6728194	1960	2.932575659723
6	6892834	1980	4.3779751788546
6	7060220	2000	4.5305232617923
7	144859	240	3
7	170740	260	20.2
7	197626	280	10.904761904762
7	225077	300	27.583333333333
7	252097	320	20.982142857143
7	279383	340	36.266666666667
7	307036	360	12.904761904762
7	334751	380	18.944444444444
7	362567	400	24
7	391033	420	18.335164835165
7	419969	440	21.7
7	449494	460	0
7	479289	480	15.5
7	509794	500	22.619047619048
7	541033	520	23.218181818182
7	573103	540	11.066666666667
7	605899	560	8.6060606060606
7	639223	580	19.839285714286
7	673649	600	0.5
7	708697	620	22.2
7	744890	640	24.194444444444
7	782356	660	16.952380952381
7	820525	680	9.8
7	860296	700	7.5
7	901228	720	0
7	943774	740	17.525641025641
7	987342	760	34.194444444444
7	1031756	780	12.333333333333
7	1077744	800	16.696428571429
7	1124740	820	20
7	1172314	840	6.5
7	1221628	860	17.672727272727
7	1271958	880	11.659090909091
7	1323570	900	17.366666666667
7	1376365	920	5.9
7	1430413	940	32.5
7	1485888	960	12.515151515152
7	1542691	980	5.6428571428571
7	1600789	1000	3.3571428571429
7	1660429	1020	31.47619047619
7	1721171	1040	13.690909090909
7	1783833	1060	21.944444444444
7	1848611	1080	25.47619047619
7	1914247	1100	7.3777777777778
7	1981772	1120	0.9047619047619
7	2051137	1140	12.619047619048
7	2123227	1160	13.066666666667
7	2197322	1180	13.8
7	2272676	1200	23.619047619048
7	2349548	1220	20.242424242424
7	2428463	1240	20.9
7	2509242	1260	4.5666666666667
7	2592366	1280	28.386363636364
7	2677082	1300	17.125
7	2763628	1320	21.963636363636
7	2852609	1340	3.3333333333333
7	2942916	1360	4.1428571428571
7	3035399	1380	25.194444444444
7	3130094	1400	14.454545454545
7	3226812	1420	16.995833333333
7	3325311	1440	16.571428571429
7	3426378	1460	9.7888888888889
7	3530607	1480	12.238095238095
7	3637085	1500	15.672727272727
7	3745257	1520	11.2
7	3856455	1540	23.054545454545
7	3969584	1560	17.266666666667
7	4084532	1580	9
7	4201884	1600	1.8095238095238
7	4322423	1620	29.266666666667
7	4444568	1640	6.5
7	4568458	1660	20.457516339869
7	4695313	1680	3.6
7	4823870	1700	21.619047619048
7	4954830	1720	19.424242424242
7	5088356	1740	13.890909090909
7	5224754	1760	0.5
7	5362767	1780	13
7	5503690	1800	11.571428571429
7	5647553	1820	2.8444444444444
7	5794116	1840	11.93956043956
7	5944274	1860	4.8444444444444
7	6095936	1880	20.43956043956
7	6250089	1900	3.9285714285714
7	6406687	1920	19.6
7	6566169	1940	20.552380952381
7	6728194	1960	8.6
7	6892834	1980	19.166666666667
7	7060220	2000	20.525641025641
8	144859	240	22.675324675325
8	170740	260	22.717647058824
8	197626	280	22.355555555556
8	225077	300	22.351063829787
8	252097	320	22.358695652174
8	279383	340	22.301075268817
8	307036	360	22.421052631579
8	334751	380	22.168421052632
8	362567	400	21.969072164948
8	391033	420	22.041237113402
8	419969	440	22.298969072165
8	449494	460	22.30303030303
8	479289	480	22.02
8	509794	500	22.116504854369
8	541033	520	22.637254901961
8	573103	540	22.632075471698
8	605899	560	23.019230769231
8	639223	580	23.349056603774
8	673649	600	23.445454545455
8	708697	620	24.064220183486
8	744890	640	24.266055045872
8	782356	660	24.982142857143
8	820525	680	25.387387387387
8	860296	700	26.070175438596
8	901228	720	26.620689655172
8	943774	740	27.353448275862
8	987342	760	28.161016949153
8	1031756	780	28.308333333333
8	1077744	800	28.540983606557
8	1124740	820	28.286885245902
8	1172314	840	29.162601626016
8	1221628	860	29.096774193548
8	1271958	880	29.714285714286
8	1323570	900	30.656
8	1376365	920	30.546875
8	1430413	940	30.969230769231
8	1485888	960	30.625954198473
8	1542691	980	31.847328244275
8	1600789	1000	32.518796992481
8	1660429	1020	32.333333333333
8	1721171	1040	32.352941176471
8	1783833	1060	33.379562043796
8	1848611	1080	33.876811594203
8	1914247	1100	34.782608695652
8	1981772	1120	35.485714285714
8	2051137	1140	36.507142857143
8	2123227	1160	36.93006993007
8	2197322	1180	37.506849315068
8	2272676	1200	37.829931972789
8	2349548	1220	38.760273972603
8	2428463	1240	38.96
8	2509242	1260	39.966216216216
8	2592366	1280	40.668874172185
8	2677082	1300	41.476821192053
8	2763628	1320	41.588235294118
8	2852609	1340	42.766233766234
8	2942916	1360	43.270967741935
8	3035399	1380	44.01935483871
8	3130094	1400	44.898089171975
8	3226812	1420	45.579617834395
8	3325311	1440	45.614906832298
8	3426378	1460	46.65625
8	3530607	1480	46.94512195122
8	3637085	1500	48.41717791411
8	3745257	1520	48.648484848485
8	3856455	1540	49.14371257485
8	3969584	1560	50.232142857143
8	4084532	1580	50.446428571429
8	4201884	1600	50.625730994152
8	4322423	1620	51.219653179191
8	4444568	1640	51.861271676301
8	4568458	1660	52.149425287356
8	4695313	1680	52.789772727273
8	4823870	1700	53.6
8	4954830	1720	53.441340782123
8	5088356	1740	54.668539325843
8	5224754	1760	55.061452513966
8	5362767	1780	55.502762430939
8	5503690	1800	56.054945054945
8	5647553	1820	56.451086956522
8	5794116	1840	57.075268817204
8	5944274	1860	58.263440860215
8	6095936	1880	58.329787234043
8	6250089	1900	58.963157894737
8	6406687	1920	59.57671957672
8	6566169	1940	60.263157894737
8	6728194	1960	61.068062827225
8	6892834	1980	61.481865284974
8	7060220	2000	61.938461538462
9	144859	240	3.8744831860505
9	170740	260	4.8931725143205
9	197626	280	4.2487568865668
9	225077	300	4.5807156477285
9	252097	320	4.2155690548021
9	279383	340	4.1592875284444
9	307036	360	4.8478531053697
9	334751	380	4.8304280053061
9	362567	400	5.0733240423304
9	391033	420	4.9705749285445
9	419969	440	4.0650055054637
9	449494	460	4.31290078399
9	479289	480	4.057615361791
9	509794	500	4.6045607630972
9	541033	520	3.4606392578533
9	573103	540	3.8155707847316
9	605899	560	3.6095363692028
9	639223	580	2.9569690171177
9	673649	600	4.4155404536608
9	708697	620	3.2239704913116
9	744890	640	3.5943427819254
9	782356	660	4.915469500652
9	820525	680	4.4336957109907
9	860296	700	4.9933040088404
9	901228	720	5.6285841488104
9	943774	740	6.5637400663167
9	987342	760	6.8387662442359
9	1031756	780	7.3379362305249
9	1077744	800	8.3012968627218
9	1124740	820	8.3344148690753
9	1172314	840	8.1475873767213
9	1221628	860	8.5019551599672
9	1271958	880	9.1711348417584
9	1323570	900	8.9398563891186
9	1376365	920	9.5882633102709
9	1430413	940	10.52419763392
9	1485888	960	10.456014741516
9	1542691	980	10.901286644205
9	1600789	1000	11.200379798592
9	1660429	1020	11.72062858077
9	1721171	1040	11.796125799516
9	1783833	1060	12.302039158361
9	1848611	1080	12.827008969473
9	1914247	1100	13.663173975034
9	1981772	1120	14.090910236201
9	2051137	1140	14.484671346227
9	2123227	1160	15.542604033299
9	2197322	1180	16.217592225449
9	2272676	1200	16.597728079246
9	2349548	1220	16.909619704331
9	2428463	1240	17.640283368343
9	2509242	1260	17.93200139474
9	2592366	1280	18.997446093025
9	2677082	1300	19.454163029058
9	2763628	1320	19.920740782227
9	2852609	1340	20.152617763364
9	2942916	1360	20.456259854607
9	3035399	1380	21.199874714082
9	3130094	1400	21.595104120294
9	3226812	1420	22.41740606593
9	3325311	1440	22.650348262168
9	3426378	1460	23.492818888081
9	3530607	1480	24.104387770715
9	3637085	1500	24.813082956655
9	3745257	1520	24.668733558358
9	3856455	1540	25.15309160837
9	3969584	1560	26.026235776118
9	4084532	1580	26.26665629039
9	4201884	1600	26.363973500351
9	4322423	1620	26.589652338963
9	4444568	1640	26.794943826261
9	4568458	1660	26.884049350765
9	4695313	1680	27.091086735668
9	4823870	1700	27.085433163514
9	4954830	1720	27.420173627964
9	5088356	1740	27.831762919961
9	5224754	1760	28.081374932561
9	5362767	1780	28.088278359762
9	5503690	1800	28.425093045368
9	5647553	1820	28.791464257877
9	5794116	1840	29.227065042669
9	5944274	1860	29.486606340878
9	6095936	1880	30.07811160654
9	6250089	1900	30.300325849546
9	6406687	1920	30.320463699766
9	6566169	1940	30.181009666217
9	6728194	1960	30.729388914681
9	6892834	1980	31.150523882742
9	7060220	2000	31.49908045937
10	144859	240	15.011619958988
10	170740	260	23.943137254902
10	197626	280	18.051935081149
10	225077	300	20.982955845344
10	252097	320	17.771022455805
10	279383	340	17.299672744273
10	307036	360	23.501679731243
10	334751	380	23.333034714446
10	362567	400	25.738616838488
10	391033	420	24.706615120275
10	419969	440	16.52426975945
10	449494	460	18.601113172542
10	479289	480	16.464242424242
10	509794	500	21.201979821055
10	541033	520	11.976024072996
10	573103	540	14.558580413297
10	605899	560	13.028752800597
10	639223	580	8.7436657681941
10	673649	600	19.496997497915
10	708697	620	10.393985728848
10	744890	640	12.919300033979
10	782356	660	24.16184041184
10	820525	680	19.657657657658
10	860296	700	24.933084924701
10	901228	720	31.68095952024
10	943774	740	43.082683658171
10	987342	760	46.7687237433
10	1031756	780	53.845308123249
10	1077744	800	68.911529603035
10	1124740	820	69.462471209863
10	1172314	840	66.383180061309
10	1221628	860	72.283241542093
10	1271958	880	84.109714285714
10	1323570	900	79.921032258065
10	1376365	920	91.934793307087
10	1430413	940	110.75873583781
10	1485888	960	109.32824427481
10	1542691	980	118.83805049912
10	1600789	1000	125.44850763272
10	1660429	1020	137.37313432836
10	1721171	1040	139.148583878
10	1783833	1060	151.34016745384
10	1848611	1080	164.53215910293
10	1914247	1100	186.68232307204
10	1981772	1120	198.55375128469
10	2051137	1140	209.80570400822
10	2123227	1160	241.57254013592
10	2197322	1180	263.01029759093
10	2272676	1200	275.4845773926
10	2349548	1220	285.93523854511
10	2428463	1240	311.17959731544
10	2509242	1260	321.55667402096
10	2592366	1280	360.9029580574
10	2677082	1300	378.46445916115
10	2763628	1320	396.83591331269
10	2852609	1340	406.12800271624
10	2942916	1360	418.45856723921
10	3035399	1380	449.43468789275
10	3130094	1400	466.34852196636
10	3226812	1420	502.54009472481
10	3325311	1440	513.03827639752
10	3426378	1460	551.91253930818
10	3530607	1480	581.02150980099
10	3637085	1500	615.68908581383
10	3745257	1520	608.54641537324
10	3856455	1540	632.67801745906
10	3969584	1560	677.36494867408
10	4084532	1580	689.9372326775
10	4201884	1600	695.05909872721
10	4322423	1620	707.00961150692
10	4444568	1640	717.96901465251
10	4568458	1660	722.75210949439
10	4695313	1680	733.92698051948
10	4823870	1700	733.62068965517
10	4954830	1720	751.86592178771
10	5088356	1740	774.60702723291
10	5224754	1760	788.56361810307
10	5362767	1780	788.95138121547
10	5503690	1800	807.98591463785
10	5647553	1820	828.94841411262
10	5794116	1840	854.22133100843
10	5944274	1860	869.45995350189
10	6095936	1880	904.69279781545
10	6250089	1900	918.10974658869
10	6406687	1920	919.33051896882
10	6566169	1940	910.89334447229
10	6728194	1960	944.29534306972
10	6892834	1980	970.35513816926
10	7060220	2000	992.19206978588
11	144859	240	137.74806392395
11	170740	260	227.94510779182
11	197626	280	323.68776064312
11	225077	300	183.75614656294
11	252097	320	378.73109368437
11	279383	340	282.54701267061
11	307036	360	318.46817327507
11	334751	380	417.77551409459
11	362567	400	189.88516973067
11	391033	420	661.99605121259
11	419969	440	234.62367741351
11	449494	460	137.12273682983
11	479289	480	416.29601862708
11	509794	500	324.83236211064
11	541033	520	512.18328875927
11	573103	540	470.64750227853
11	605899	560	559.28010362324
11	639223	580	371.58458617795
11	673649	600	91.327632108868
11	708697	620	231.45583775853
11	744890	640	430.08589360588
11	782356	660	334.15501891234
11	820525	680	233.62716309301
11	860296	700	273.77157978823
11	901228	720	182.75345776556
11	943774	740	616.41352098263
11	987342	760	434.93044715129
11	1031756	780	327.42079411996
11	1077744	800	391.988959939
11	1124740	820	371.38697204188
11	1172314	840	372.17380328573
11	1221628	860	515.96162989626
11	1271958	880	567.27290208562
11	1323570	900	275.37319048217
11	1376365	920	289.39200920028
11	1430413	940	420.67117015336
11	1485888	960	571.0422546123
11	1542691	980	371.19769952877
11	1600789	1000	378.84139045935
11	1660429	1020	340.09216382251
11	1721171	1040	517.48143308394
11	1783833	1060	434.12919626827
11	1848611	1080	338.78541481646
11	1914247	1100	470.93535640852
11	1981772	1120	329.82403420077
11	2051137	1140	329.86524004678
11	2123227	1160	468.9902908244
11	2197322	1180	235.34369535607
11	2272676	1200	327.9069301276
11	2349548	1220	580.71942950626
11	2428463	1240	473.5741975227
11	2509242	1260	277.33764646406
11	2592366	1280	584.54408479896
11	2677082	1300	804.56970317811
11	2763628	1320	528.89815699881
11	2852609	1340	327.98378544812
11	2942916	1360	330.36198103035
11	3035399	1380	424.92035461535
11	3130094	1400	569.89255750581
11	3226812	1420	779.62796964703
11	3325311	1440	326.80685953622
11	3426378	1460	468.76997719437
11	3530607	1480	323.36042322445
11	3637085	1500	534.15506903066
11	3745257	1520	526.05201118564
11	3856455	1540	526.94045889543
11	3969584	1560	721.80003234643
11	4084532	1580	627.50154422847
11	4201884	1600	334.78215932212
11	4322423	1620	725.91336772528
11	4444568	1640	377.42378580605
11	4568458	1660	861.72420687476
11	4695313	1680	288.7555550909
11	4823870	1700	327.88883747173
11	4954830	1720	567.18647183079
11	5088356	1740	521.6944298031
11	5224754	1760	430.98579152655
11	5362767	1780	332.39932990324
11	5503690	1800	332.99594794793
11	5647553	1820	473.72462700901
11	5794116	1840	660.61840759957
11	5944274	1860	474.95996755315
11	6095936	1880	674.61579416935
11	6250089	1900	383.44389634808
11	6406687	1920	474.78748500346
11	6566169	1940	711.74746242134
11	6728194	1960	525.16943027089
11	6892834	1980	483.96017266827
11	7060220	2000	620.06378076179
12	144859	240	45.916021307983
12	170740	260	45.589021558364
12	197626	280	46.241108663304
12	225077	300	45.939036640736
12	252097	320	47.341386710546
12	279383	340	47.091168778434
12	307036	360	45.49545332501
12	334751	380	46.419501566066
12	362567	400	47.471292432668
12	391033	420	47.285432229471
12	419969	440	46.924735482703
12	449494	460	45.707578943275
12	479289	480	46.255113180786
12	509794	500	46.404623158663
12	541033	520	46.562117159934
12	573103	540	47.064750227853
12	605899	560	46.606675301936
12	639223	580	46.448073272244
12	673649	600	45.663816054434
12	708697	620	46.291167551706
12	744890	640	47.787321511764
12	782356	660	47.736431273192
12	820525	680	46.725432618603
12	860296	700	45.628596631371
12	901228	720	45.68836444139
12	943774	740	47.416424690971
12	987342	760	48.325605239032
12	1031756	780	46.774399159994
12	1077744	800	48.998619992375
12	1124740	820	46.423371505235
12	1172314	840	46.521725410717
12	1221628	860	46.905602717842
12	1271958	880	47.272741840468
12	1323570	900	45.895531747028
12	1376365	920	48.232001533381
12	1430413	940	46.741241128151
12	1485888	960	47.586854551025
12	1542691	980	46.399712441097
12	1600789	1000	47.355173807419
12	1660429	1020	48.584594831788
12	1721171	1040	47.043766643994
12	1783833	1060	48.236577363141
12	1848611	1080	48.397916402351
12	1914247	1100	47.093535640852
12	1981772	1120	47.117719171538
12	2051137	1140	47.123605720968
12	2123227	1160	46.89902908244
12	2197322	1180	47.068739071214
12	2272676	1200	46.843847161086
12	2349548	1220	48.393285792188
12	2428463	1240	47.35741975227
12	2509242	1260	46.222941077343
12	2592366	1280	48.71200706658
12	2677082	1300	47.327629598712
12	2763628	1320	48.081650636256
12	2852609	1340	46.854826492588
12	2942916	1360	47.194568718622
12	3035399	1380	47.213372735039
12	3130094	1400	47.491046458818
12	3226812	1420	48.726748102939
12	3325311	1440	46.686694219461
12	3426378	1460	46.876997719437
12	3530607	1480	46.194346174922