version 2
run statisticRVV-155-20150325-17:22:57-15560
attr c 9
attr configname statisticRVV
attr datetime 20150325-17:22:57
attr experiment statisticRVV
attr inifile omnetpp.ini
attr iterationvars "$sc=\"erlangen-medium.launchd.xml\", $p=1/10, $c=9"
attr iterationvars2 "$sc=\"erlangen-medium.launchd.xml\", $p=1/10, $c=9, $repetition=5"
attr measurement "$sc=\"erlangen-medium.launchd.xml\", $p=1/10, $c=9"
attr network RSUExampleScenario
attr p 1/10
attr processid 15560
attr repetition 5
attr replication #5
attr resultdir results
attr runnumber 155
attr sc "\"erlangen-medium.launchd.xml\""
attr seedset 155

vector 0  RSUExampleScenario.rsu[0].appl  Number_CH  ETV
vector 1  RSUExampleScenario.rsu[0].appl  Number_ON  ETV
vector 2  RSUExampleScenario.rsu[0].appl  Number_FN  ETV
vector 3  RSUExampleScenario.rsu[0].appl  Number_CH_Losts  ETV
vector 4  RSUExampleScenario.rsu[0].appl  Mean_Cluster_Size  ETV
vector 5  RSUExampleScenario.rsu[0].appl  StdDev_Cluster_Size  ETV
vector 6  RSUExampleScenario.rsu[0].appl  Variance_Cluster_Size  ETV
vector 7  RSUExampleScenario.rsu[0].appl  Mean_Neighbors  ETV
vector 8  RSUExampleScenario.rsu[0].appl  StdDev_Neighbors  ETV
vector 9  RSUExampleScenario.rsu[0].appl  Variance_Neighbors  ETV
vector 10  RSUExampleScenario.rsu[0].appl  Total_CH_Utility  ETV
vector 11  RSUExampleScenario.rsu[0].appl  Mean_CH_Utility  ETV
vector 12  RSUExampleScenario.rsu[0].appl  StdDev_CH_Utility  ETV
vector 13  RSUExampleScenario.rsu[0].appl  Variance_CH_Utility  ETV
vector 14  RSUExampleScenario.rsu[0].appl  Total_exp_CH_Utility  ETV
vector 15  RSUExampleScenario.rsu[0].appl  Mean_exp_CH_Utility  ETV
vector 16  RSUExampleScenario.rsu[0].appl  StdDev_exp_CH_Utility  ETV
vector 17  RSUExampleScenario.rsu[0].appl  Variance_exp_CH_Utility  ETV
vector 18  RSUExampleScenario.rsu[0].appl  Total_ON_Utility  ETV
vector 19  RSUExampleScenario.rsu[0].appl  Mean_ON_Utility  ETV
vector 20  RSUExampleScenario.rsu[0].appl  StdDev_ON_Utility  ETV
vector 21  RSUExampleScenario.rsu[0].appl  Variance_ON_Utility  ETV
vector 22  RSUExampleScenario.rsu[0].appl  Total_exp_ON_Utility  ETV
vector 23  RSUExampleScenario.rsu[0].appl  Mean_exp_ON_Utility  ETV
vector 24  RSUExampleScenario.rsu[0].appl  StdDev_exp_ON_Utility  ETV
vector 25  RSUExampleScenario.rsu[0].appl  Variance_exp_ON_Utility  ETV
0	145313	240	6
0	171095	260	6
0	198332	280	8
0	225448	300	11
0	252740	320	3
0	279988	340	11
0	307078	360	6
0	334514	380	5
0	361870	400	5
0	388901	420	8
0	416154	440	6
0	443957	460	5
0	471988	480	6
0	500575	500	5
0	529669	520	9
0	558968	540	7
0	589067	560	7
0	619618	580	11
0	651057	600	7
0	683138	620	6
0	716641	640	10
0	749896	660	7
0	784569	680	6
0	820254	700	9
0	856856	720	5
0	894580	740	6
0	933589	760	9
0	974112	780	8
0	1015524	800	11
0	1057494	820	9
0	1101797	840	6
0	1146732	860	9
0	1192905	880	11
0	1240251	900	12
0	1288859	920	12
0	1338313	940	12
0	1388836	960	11
0	1440819	980	12
0	1493345	1000	6
0	1547512	1020	11
0	1603782	1040	8
0	1660905	1060	16
0	1718639	1080	12
0	1778561	1100	12
0	1840627	1120	14
0	1904095	1140	7
0	1969800	1160	7
0	2036055	1180	15
0	2104152	1200	13
0	2175066	1220	10
0	2246653	1240	14
0	2320518	1260	16
0	2396424	1280	12
0	2474622	1300	14
0	2553807	1320	12
0	2635964	1340	15
0	2719982	1360	16
0	2805505	1380	13
0	2893686	1400	14
0	2983722	1420	15
0	3075702	1440	12
0	3169654	1460	12
0	3266184	1480	12
0	3364601	1500	12
0	3465742	1520	12
0	3569339	1540	10
0	3675376	1560	12
0	3783139	1580	8
0	3894373	1600	13
0	4006695	1620	9
0	4121626	1640	14
0	4238645	1660	12
0	4358625	1680	15
0	4480174	1700	10
0	4604615	1720	12
0	4730670	1740	10
0	4858952	1760	14
0	4989713	1780	14
0	5122890	1800	14
0	5258655	1820	16
0	5397103	1840	14
0	5537095	1860	17
0	5680148	1880	17
0	5825381	1900	20
0	5974124	1920	23
0	6124792	1940	14
0	6277564	1960	8
0	6432957	1980	9
0	6590833	2000	14
1	145313	240	9
1	171095	260	6
1	198332	280	10
1	225448	300	16
1	252740	320	5
1	279988	340	14
1	307078	360	9
1	334514	380	6
1	361870	400	6
1	388901	420	12
1	416154	440	9
1	443957	460	11
1	471988	480	8
1	500575	500	7
1	529669	520	12
1	558968	540	7
1	589067	560	8
1	619618	580	13
1	651057	600	9
1	683138	620	9
1	716641	640	14
1	749896	660	8
1	784569	680	11
1	820254	700	12
1	856856	720	8
1	894580	740	8
1	933589	760	13
1	974112	780	10
1	1015524	800	16
1	1057494	820	12
1	1101797	840	8
1	1146732	860	11
1	1192905	880	16
1	1240251	900	16
1	1288859	920	15
1	1338313	940	18
1	1388836	960	12
1	1440819	980	16
1	1493345	1000	8
1	1547512	1020	14
1	1603782	1040	10
1	1660905	1060	23
1	1718639	1080	19
1	1778561	1100	17
1	1840627	1120	21
1	1904095	1140	8
1	1969800	1160	9
1	2036055	1180	21
1	2104152	1200	18
1	2175066	1220	13
1	2246653	1240	22
1	2320518	1260	26
1	2396424	1280	18
1	2474622	1300	17
1	2553807	1320	16
1	2635964	1340	23
1	2719982	1360	23
1	2805505	1380	18
1	2893686	1400	20
1	2983722	1420	21
1	3075702	1440	18
1	3169654	1460	18
1	3266184	1480	16
1	3364601	1500	16
1	3465742	1520	13
1	3569339	1540	15
1	3675376	1560	19
1	3783139	1580	12
1	3894373	1600	22
1	4006695	1620	12
1	4121626	1640	18
1	4238645	1660	19
1	4358625	1680	21
1	4480174	1700	15
1	4604615	1720	16
1	4730670	1740	12
1	4858952	1760	20
1	4989713	1780	21
1	5122890	1800	19
1	5258655	1820	21
1	5397103	1840	21
1	5537095	1860	26
1	5680148	1880	26
1	5825381	1900	31
1	5974124	1920	33
1	6124792	1940	21
1	6277564	1960	10
1	6432957	1980	13
1	6590833	2000	22
2	145313	240	64
2	171095	260	73
2	198332	280	75
2	225448	300	67
2	252740	320	87
2	279988	340	68
2	307078	360	79
2	334514	380	83
2	361870	400	83
2	388901	420	72
2	416154	440	78
2	443957	460	80
2	471988	480	83
2	500575	500	85
2	529669	520	78
2	558968	540	85
2	589067	560	85
2	619618	580	80
2	651057	600	87
2	683138	620	90
2	716641	640	82
2	749896	660	89
2	784569	680	92
2	820254	700	90
2	856856	720	98
2	894580	740	97
2	933589	760	91
2	974112	780	97
2	1015524	800	89
2	1057494	820	94
2	1101797	840	105
2	1146732	860	99
2	1192905	880	94
2	1240251	900	95
2	1288859	920	96
2	1338313	940	95
2	1388836	960	103
2	1440819	980	98
2	1493345	1000	113
2	1547512	1020	106
2	1603782	1040	114
2	1660905	1060	94
2	1718639	1080	101
2	1778561	1100	105
2	1840627	1120	102
2	1904095	1140	123
2	1969800	1160	124
2	2036055	1180	104
2	2104152	1200	108
2	2175066	1220	119
2	2246653	1240	108
2	2320518	1260	103
2	2396424	1280	117
2	2474622	1300	116
2	2553807	1320	121
2	2635964	1340	111
2	2719982	1360	112
2	2805505	1380	119
2	2893686	1400	119
2	2983722	1420	119
2	3075702	1440	128
2	3169654	1460	127
2	3266184	1480	132
2	3364601	1500	133
2	3465742	1520	136
2	3569339	1540	139
2	3675376	1560	134
2	3783139	1580	144
2	3894373	1600	133
2	4006695	1620	148
2	4121626	1640	137
2	4238645	1660	139
2	4358625	1680	136
2	4480174	1700	148
2	4604615	1720	145
2	4730670	1740	153
2	4858952	1760	142
2	4989713	1780	141
2	5122890	1800	145
2	5258655	1820	143
2	5397103	1840	145
2	5537095	1860	140
2	5680148	1880	141
2	5825381	1900	134
2	5974124	1920	130
2	6124792	1940	150
2	6277564	1960	169
2	6432957	1980	167
2	6590833	2000	155
3	145313	240	0
3	171095	260	0
3	198332	280	5
3	225448	300	3
3	252740	320	2
3	279988	340	2
3	307078	360	1
3	334514	380	2
3	361870	400	0
3	388901	420	1
3	416154	440	3
3	443957	460	2
3	471988	480	4
3	500575	500	3
3	529669	520	3
3	558968	540	2
3	589067	560	5
3	619618	580	3
3	651057	600	0
3	683138	620	1
3	716641	640	2
3	749896	660	3
3	784569	680	3
3	820254	700	4
3	856856	720	2
3	894580	740	2
3	933589	760	4
3	974112	780	3
3	1015524	800	2
3	1057494	820	5
3	1101797	840	3
3	1146732	860	0
3	1192905	880	5
3	1240251	900	0
3	1288859	920	1
3	1338313	940	3
3	1388836	960	3
3	1440819	980	1
3	1493345	1000	2
3	1547512	1020	2
3	1603782	1040	3
3	1660905	1060	3
3	1718639	1080	4
3	1778561	1100	7
3	1840627	1120	2
3	1904095	1140	2
3	1969800	1160	4
3	2036055	1180	5
3	2104152	1200	3
3	2175066	1220	2
3	2246653	1240	4
3	2320518	1260	1
3	2396424	1280	3
3	2474622	1300	5
3	2553807	1320	2
3	2635964	1340	2
3	2719982	1360	1
3	2805505	1380	2
3	2893686	1400	4
3	2983722	1420	3
3	3075702	1440	6
3	3169654	1460	1
3	3266184	1480	4
3	3364601	1500	5
3	3465742	1520	4
3	3569339	1540	5
3	3675376	1560	2
3	3783139	1580	4
3	3894373	1600	2
3	4006695	1620	2
3	4121626	1640	5
3	4238645	1660	2
3	4358625	1680	9
3	4480174	1700	8
3	4604615	1720	3
3	4730670	1740	7
3	4858952	1760	3
3	4989713	1780	6
3	5122890	1800	2
3	5258655	1820	4
3	5397103	1840	3
3	5537095	1860	4
3	5680148	1880	7
3	5825381	1900	2
3	5974124	1920	2
3	6124792	1940	6
3	6277564	1960	3
3	6432957	1980	7
3	6590833	2000	3
4	145313	240	1.5
4	171095	260	1
4	198332	280	1.25
4	225448	300	1.4545454545455
4	252740	320	1.6666666666667
4	279988	340	1.2727272727273
4	307078	360	1.5
4	334514	380	1.2
4	361870	400	1.2
4	388901	420	1.5
4	416154	440	1.5
4	443957	460	2.2
4	471988	480	1.3333333333333
4	500575	500	1.4
4	529669	520	1.3333333333333
4	558968	540	1
4	589067	560	1.1428571428571
4	619618	580	1.1818181818182
4	651057	600	1.2857142857143
4	683138	620	1.5
4	716641	640	1.4
4	749896	660	1.1428571428571
4	784569	680	1.8333333333333
4	820254	700	1.3333333333333
4	856856	720	1.6
4	894580	740	1.3333333333333
4	933589	760	1.4444444444444
4	974112	780	1.25
4	1015524	800	1.4545454545455
4	1057494	820	1.3333333333333
4	1101797	840	1.3333333333333
4	1146732	860	1.2222222222222
4	1192905	880	1.4545454545455
4	1240251	900	1.3333333333333
4	1288859	920	1.25
4	1338313	940	1.5
4	1388836	960	1.0909090909091
4	1440819	980	1.3333333333333
4	1493345	1000	1.3333333333333
4	1547512	1020	1.2727272727273
4	1603782	1040	1.25
4	1660905	1060	1.4375
4	1718639	1080	1.5833333333333
4	1778561	1100	1.4166666666667
4	1840627	1120	1.5
4	1904095	1140	1.1428571428571
4	1969800	1160	1.2857142857143
4	2036055	1180	1.4
4	2104152	1200	1.3846153846154
4	2175066	1220	1.3
4	2246653	1240	1.5714285714286
4	2320518	1260	1.625
4	2396424	1280	1.5
4	2474622	1300	1.2142857142857
4	2553807	1320	1.3333333333333
4	2635964	1340	1.5333333333333
4	2719982	1360	1.4375
4	2805505	1380	1.3846153846154
4	2893686	1400	1.4285714285714
4	2983722	1420	1.4
4	3075702	1440	1.5
4	3169654	1460	1.5
4	3266184	1480	1.3333333333333
4	3364601	1500	1.3333333333333
4	3465742	1520	1.0833333333333
4	3569339	1540	1.5
4	3675376	1560	1.5833333333333
4	3783139	1580	1.5
4	3894373	1600	1.6923076923077
4	4006695	1620	1.3333333333333
4	4121626	1640	1.2857142857143
4	4238645	1660	1.5833333333333
4	4358625	1680	1.4
4	4480174	1700	1.5
4	4604615	1720	1.3333333333333
4	4730670	1740	1.2
4	4858952	1760	1.4285714285714
4	4989713	1780	1.5
4	5122890	1800	1.3571428571429
4	5258655	1820	1.3125
4	5397103	1840	1.5
4	5537095	1860	1.5294117647059
4	5680148	1880	1.5294117647059
4	5825381	1900	1.55
4	5974124	1920	1.4347826086957
4	6124792	1940	1.5
4	6277564	1960	1.25
4	6432957	1980	1.4444444444444
4	6590833	2000	1.5714285714286
5	145313	240	0.54772255750517
5	171095	260	0
5	198332	280	0.46291004988628
5	225448	300	0.52223296786709
5	252740	320	0.57735026918963
5	279988	340	0.46709936649691
5	307078	360	0.54772255750517
5	334514	380	0.44721359549996
5	361870	400	0.44721359549996
5	388901	420	0.75592894601845
5	416154	440	0.54772255750517
5	443957	460	0.83666002653408
5	471988	480	0.51639777949432
5	500575	500	0.54772255750517
5	529669	520	0.5
5	558968	540	0
5	589067	560	0.37796447300923
5	619618	580	0.40451991747795
5	651057	600	0.48795003647427
5	683138	620	0.54772255750517
5	716641	640	0.51639777949432
5	749896	660	0.37796447300923
5	784569	680	0.75277265270908
5	820254	700	0.5
5	856856	720	0.54772255750517
5	894580	740	0.51639777949432
5	933589	760	0.52704627669473
5	974112	780	0.46291004988628
5	1015524	800	0.52223296786709
5	1057494	820	0.5
5	1101797	840	0.51639777949432
5	1146732	860	0.4409585518441
5	1192905	880	0.52223296786709
5	1240251	900	0.49236596391733
5	1288859	920	0.45226701686665
5	1338313	940	0.52223296786709
5	1388836	960	0.30151134457776
5	1440819	980	0.49236596391733
5	1493345	1000	0.51639777949432
5	1547512	1020	0.46709936649691
5	1603782	1040	0.46291004988628
5	1660905	1060	0.6291528696059
5	1718639	1080	0.51492865054444
5	1778561	1100	0.51492865054444
5	1840627	1120	0.65044363558799
5	1904095	1140	0.37796447300923
5	1969800	1160	0.48795003647427
5	2036055	1180	0.50709255283711
5	2104152	1200	0.50636968354183
5	2175066	1220	0.48304589153965
5	2246653	1240	0.5135525910131
5	2320518	1260	0.5
5	2396424	1280	0.52223296786709
5	2474622	1300	0.42581531362632
5	2553807	1320	0.49236596391733
5	2635964	1340	0.51639777949432
5	2719982	1360	0.51234753829798
5	2805505	1380	0.50636968354183
5	2893686	1400	0.5135525910131
5	2983722	1420	0.50709255283711
5	3075702	1440	0.52223296786709
5	3169654	1460	0.52223296786709
5	3266184	1480	0.49236596391733
5	3364601	1500	0.49236596391733
5	3465742	1520	0.28867513459481
5	3569339	1540	0.52704627669473
5	3675376	1560	0.51492865054444
5	3783139	1580	0.53452248382485
5	3894373	1600	0.48038446141526
5	4006695	1620	0.5
5	4121626	1640	0.4688072309385
5	4238645	1660	0.51492865054444
5	4358625	1680	0.50709255283711
5	4480174	1700	0.52704627669473
5	4604615	1720	0.49236596391733
5	4730670	1740	0.42163702135578
5	4858952	1760	0.5135525910131
5	4989713	1780	0.51887452166277
5	5122890	1800	0.49724515809885
5	5258655	1820	0.47871355387817
5	5397103	1840	0.51887452166277
5	5537095	1860	0.51449575542753
5	5680148	1880	0.51449575542753
5	5825381	1900	0.51041778553404
5	5974124	1920	0.5068698018697
5	6124792	1940	0.51887452166277
5	6277564	1960	0.46291004988628
5	6432957	1980	0.52704627669473
5	6590833	2000	0.5135525910131
6	145313	240	0.3
6	171095	260	0
6	198332	280	0.21428571428571
6	225448	300	0.27272727272727
6	252740	320	0.33333333333333
6	279988	340	0.21818181818182
6	307078	360	0.3
6	334514	380	0.2
6	361870	400	0.2
6	388901	420	0.57142857142857
6	416154	440	0.3
6	443957	460	0.7
6	471988	480	0.26666666666667
6	500575	500	0.3
6	529669	520	0.25
6	558968	540	0
6	589067	560	0.14285714285714
6	619618	580	0.16363636363636
6	651057	600	0.23809523809524
6	683138	620	0.3
6	716641	640	0.26666666666667
6	749896	660	0.14285714285714
6	784569	680	0.56666666666667
6	820254	700	0.25
6	856856	720	0.3
6	894580	740	0.26666666666667
6	933589	760	0.27777777777778
6	974112	780	0.21428571428571
6	1015524	800	0.27272727272727
6	1057494	820	0.25
6	1101797	840	0.26666666666667
6	1146732	860	0.19444444444444
6	1192905	880	0.27272727272727
6	1240251	900	0.24242424242424
6	1288859	920	0.20454545454545
6	1338313	940	0.27272727272727
6	1388836	960	0.090909090909091
6	1440819	980	0.24242424242424
6	1493345	1000	0.26666666666667
6	1547512	1020	0.21818181818182
6	1603782	1040	0.21428571428571
6	1660905	1060	0.39583333333333
6	1718639	1080	0.26515151515152
6	1778561	1100	0.26515151515152
6	1840627	1120	0.42307692307692
6	1904095	1140	0.14285714285714
6	1969800	1160	0.23809523809524
6	2036055	1180	0.25714285714286
6	2104152	1200	0.25641025641026
6	2175066	1220	0.23333333333333
6	2246653	1240	0.26373626373626
6	2320518	1260	0.25
6	2396424	1280	0.27272727272727
6	2474622	1300	0.18131868131868
6	2553807	1320	0.24242424242424
6	2635964	1340	0.26666666666667
6	2719982	1360	0.2625
6	2805505	1380	0.25641025641026
6	2893686	1400	0.26373626373626
6	2983722	1420	0.25714285714286
6	3075702	1440	0.27272727272727
6	3169654	1460	0.27272727272727
6	3266184	1480	0.24242424242424
6	3364601	1500	0.24242424242424
6	3465742	1520	0.083333333333333
6	3569339	1540	0.27777777777778
6	3675376	1560	0.26515151515152
6	3783139	1580	0.28571428571429
6	3894373	1600	0.23076923076923
6	4006695	1620	0.25
6	4121626	1640	0.21978021978022
6	4238645	1660	0.26515151515152
6	4358625	1680	0.25714285714286
6	4480174	1700	0.27777777777778
6	4604615	1720	0.24242424242424
6	4730670	1740	0.17777777777778
6	4858952	1760	0.26373626373626
6	4989713	1780	0.26923076923077
6	5122890	1800	0.24725274725275
6	5258655	1820	0.22916666666667
6	5397103	1840	0.26923076923077
6	5537095	1860	0.26470588235294
6	5680148	1880	0.26470588235294
6	5825381	1900	0.26052631578947
6	5974124	1920	0.25691699604743
6	6124792	1940	0.26923076923077
6	6277564	1960	0.21428571428571
6	6432957	1980	0.27777777777778
6	6590833	2000	0.26373626373626
7	145313	240	22.367088607595
7	171095	260	22.505882352941
7	198332	280	22.075268817204
7	225448	300	22.053191489362
7	252740	320	22.378947368421
7	279988	340	22.602150537634
7	307078	360	22.021276595745
7	334514	380	22.612903225806
7	361870	400	22.462365591398
7	388901	420	22.369565217391
7	416154	440	22.268817204301
7	443957	460	22.010416666667
7	471988	480	21.865979381443
7	500575	500	22.237113402062
7	529669	520	21.848484848485
7	558968	540	22.252525252525
7	589067	560	22.42
7	619618	580	22.009615384615
7	651057	600	22.572815533981
7	683138	620	22.609523809524
7	716641	640	23.552380952381
7	749896	660	23.278846153846
7	784569	680	23.559633027523
7	820254	700	24.490909090909
7	856856	720	24.684684684685
7	894580	740	25.216216216216
7	933589	760	25.839285714286
7	974112	780	26.191304347826
7	1015524	800	27.293103448276
7	1057494	820	27.35652173913
7	1101797	840	28.016806722689
7	1146732	860	28.756302521008
7	1192905	880	27.97520661157
7	1240251	900	29.146341463415
7	1288859	920	29.447154471545
7	1338313	940	29.524193548387
7	1388836	960	29.952380952381
7	1440819	980	30.420634920635
7	1493345	1000	30.488188976378
7	1547512	1020	30.938461538462
7	1603782	1040	31.242424242424
7	1660905	1060	31.699248120301
7	1718639	1080	32.007575757576
7	1778561	1100	32.932330827068
7	1840627	1120	32.992700729927
7	1904095	1140	34.101449275362
7	1969800	1160	34.407142857143
7	2036055	1180	34.942446043165
7	2104152	1200	35.748201438849
7	2175066	1220	36.274647887324
7	2246653	1240	36.923076923077
7	2320518	1260	37.331034482759
7	2396424	1280	38.299319727891
7	2474622	1300	39.342465753425
7	2553807	1320	39.389261744966
7	2635964	1340	40.557046979866
7	2719982	1360	41.364238410596
7	2805505	1380	42.066666666667
7	2893686	1400	42.333333333333
7	2983722	1420	42.929032258065
7	3075702	1440	43.28025477707
7	3169654	1460	44.649681528662
7	3266184	1480	44.51875
7	3364601	1500	46.08125
7	3465742	1520	46.335403726708
7	3569339	1540	47.207317073171
7	3675376	1560	47.575757575758
7	3783139	1580	48.609756097561
7	3894373	1600	48.934131736527
7	4006695	1620	49.928571428571
7	4121626	1640	50.301775147929
7	4238645	1660	51.058823529412
7	4358625	1680	51.485380116959
7	4480174	1700	52.028901734104
7	4604615	1720	52.616279069767
7	4730670	1740	52.748571428571
7	4858952	1760	53.255681818182
7	4989713	1780	53.862857142857
7	5122890	1800	54.123595505618
7	5258655	1820	54.633333333333
7	5397103	1840	55.777777777778
7	5537095	1860	55.994535519126
7	5680148	1880	56.217391304348
7	5825381	1900	56.848648648649
7	5974124	1920	57.596774193548
7	6124792	1940	58.497297297297
7	6277564	1960	58.786096256684
7	6432957	1980	59.349206349206
7	6590833	2000	60.322751322751
8	145313	240	4.7235829924878
8	171095	260	4.5372099918126
8	198332	280	5.2300065656701
8	225448	300	4.700416410921
8	252740	320	4.6153742785654
8	279988	340	4.7938814829681
8	307078	360	4.1503432256157
8	334514	380	4.331462896931
8	361870	400	4.1795546355858
8	388901	420	3.9661130286641
8	416154	440	4.6254019448049
8	443957	460	4.8482113721219
8	471988	480	5.25124760172
8	500575	500	4.7538869970537
8	529669	520	4.8410734944689
8	558968	540	3.7480428480318
8	589067	560	3.9110824149544
8	619618	580	4.8561745148415
8	651057	600	4.1647492256674
8	683138	620	3.9939743992459
8	716641	640	2.8283623706367
8	749896	660	2.778058030838
8	784569	680	4.1842544197586
8	820254	700	2.3607861174992
8	856856	720	4.2038553343805
8	894580	740	4.6248447746048
8	933589	760	4.4287219221326
8	974112	780	5.8172394311686
8	1015524	800	5.9680558940431
8	1057494	820	6.1118109762664
8	1101797	840	7.3461429903868
8	1146732	860	6.8543767862618
8	1192905	880	7.7043957257284
8	1240251	900	8.747536352774
8	1288859	920	8.1795459131174
8	1338313	940	8.3075670371087
8	1388836	960	9.2259262020523
8	1440819	980	8.9087401350388
8	1493345	1000	9.62459328494
8	1547512	1020	10.426378180168
8	1603782	1040	10.483080670191
8	1660905	1060	11.296275172097
8	1718639	1080	10.984024632694
8	1778561	1100	11.57792798802
8	1840627	1120	12.854100027048
8	1904095	1140	13.461103660283
8	1969800	1160	13.845445153199
8	2036055	1180	13.267465810997
8	2104152	1200	14.239205688022
8	2175066	1220	15.14569637453
8	2246653	1240	15.196402893067
8	2320518	1260	16.327403333563
8	2396424	1280	16.542769378558
8	2474622	1300	17.434582500926
8	2553807	1320	17.500081625059
8	2635964	1340	18.115762343186
8	2719982	1360	19.119443312575
8	2805505	1380	19.612578714893
8	2893686	1400	19.751748756689
8	2983722	1420	20.325631466499
8	3075702	1440	20.812297398692
8	3169654	1460	21.506667493891
8	3266184	1480	22.175677047516
8	3364601	1500	22.546659342002
8	3465742	1520	23.212050776315
8	3569339	1540	24.062667571819
8	3675376	1560	24.900570939471
8	3783139	1580	24.72486942409
8	3894373	1600	25.209516687574
8	4006695	1620	25.371862256329
8	4121626	1640	26.119871274597
8	4238645	1660	26.050407640816
8	4358625	1680	26.341503089264
8	4480174	1700	26.657698339571
8	4604615	1720	26.635143036095
8	4730670	1740	27.18084784047
8	4858952	1760	26.889774404641
8	4989713	1780	26.771350762987
8	5122890	1800	27.165456723138
8	5258655	1820	28.377129039316
8	5397103	1840	28.073637319602
8	5537095	1860	28.797225382936
8	5680148	1880	29.020183700486
8	5825381	1900	28.665211661123
8	5974124	1920	29.25994938797
8	6124792	1940	29.602644624132
8	6277564	1960	29.910389809393
8	6432957	1980	30.655685007889
8	6590833	2000	30.166498270795
9	145313	240	22.31223628692
9	171095	260	20.586274509804
9	198332	280	27.352968676952
9	225448	300	22.093914436056
9	252740	320	21.301679731243
9	279988	340	22.981299672744
9	307078	360	17.225348890414
9	334514	380	18.761570827489
9	361870	400	17.468676951847
9	388901	420	15.73005255614
9	416154	440	21.394343151005
9	443957	460	23.505153508772
9	471988	480	27.57560137457
9	500575	500	22.599441580756
9	529669	520	23.43599257885
9	558968	540	14.047825190682
9	589067	560	15.296565656566
9	619618	580	23.582430918596
9	651057	600	17.345136112698
9	683138	620	15.951831501832
9	716641	640	7.9996336996337
9	749896	660	7.7176064227035
9	784569	680	17.507985049269
9	820254	700	5.5733110925771
9	856856	720	17.6723996724
9	894580	740	21.389189189189
9	933589	760	19.613577863578
9	974112	780	33.840274599542
9	1015524	800	35.617691154423
9	1057494	820	37.354233409611
9	1101797	840	53.965816835209
9	1146732	860	46.982481128044
9	1192905	880	59.357713498623
9	1240251	900	76.519392243103
9	1288859	920	66.904971344795
9	1338313	940	69.015670076056
9	1388836	960	85.117714285714
9	1440819	980	79.365650793651
9	1493345	1000	92.632795900512
9	1547512	1020	108.70936195587
9	1603782	1040	109.89498033773
9	1660905	1060	127.60583276373
9	1718639	1080	120.64879713162
9	1778561	1100	134.04841649578
9	1840627	1120	165.22788750537
9	1904095	1140	181.20131175288
9	1969800	1160	191.69635149024
9	2036055	1180	176.02564904598
9	2104152	1200	202.7549786258
9	2175066	1220	229.39211866946
9	2246653	1240	230.93066088841
9	2320518	1260	266.58409961686
9	2396424	1280	273.66321871214
9	2474622	1300	303.96466698158
9	2553807	1320	306.25285688373
9	2635964	1340	328.1808452748
9	2719982	1360	365.55311258278
9	2805505	1380	384.65324384787
9	2893686	1400	390.13157894737
9	2983722	1420	413.13129451194
9	3075702	1440	433.1517230116
9	3169654	1460	462.5367466928
9	3266184	1480	491.76065251572
9	3364601	1500	508.35184748428
9	3465742	1520	538.79930124224
9	3569339	1540	579.01197067185
9	3675376	1560	620.0384331116
9	3783139	1580	611.31916803831
9	3894373	1600	635.5197316211
9	4006695	1620	643.73139435415
9	4121626	1640	682.24767540152
9	4238645	1660	678.6237382527
9	4358625	1680	693.87478500172
9	4480174	1700	710.63288076354
9	4604615	1720	709.43084455324
9	4730670	1740	738.79848932677
9	4858952	1760	723.05996753247
9	4989713	1780	716.70522167488
9	5122890	1800	737.9620389767
9	5258655	1820	805.26145251397
9	5397103	1840	788.12911235258
9	5537095	1860	829.2801897556
9	5680148	1880	842.17106200998
9	5825381	1900	821.69435957697
9	5974124	1920	856.14463818657
9	6124792	1940	876.31656874266
9	6277564	1960	894.63141854982
9	6432957	1980	939.77102330294
9	6590833	2000	910.01761792187
10	145313	240	279.74375285354
10	171095	260	293.71897890624
10	198332	280	378.25127952246
10	225448	300	524.33410983547
10	252740	320	146.98139814647
10	279988	340	526.79601434593
10	307078	360	288.49980767832
10	334514	380	238.42603865871
10	361870	400	242.32994882657
10	388901	420	387.29748840845
10	416154	440	287.65244133226
10	443957	460	243.73454912913
10	471988	480	292.82248847372
10	500575	500	242.12023229886
10	529669	520	438.24192935833
10	558968	540	340.34692558321
10	589067	560	352.88822038334
10	619618	580	533.28361074865
10	651057	600	339.14041420597
10	683138	620	295.55947315625
10	716641	640	503.1614677602
10	749896	660	339.38182958747
10	784569	680	296.07523036349
10	820254	700	439.45479594702
10	856856	720	247.30187414888
10	894580	740	295.38141827735
10	933589	760	437.00707295127
10	974112	780	387.54271641722
10	1015524	800	534.47956403494
10	1057494	820	434.18113452889
10	1101797	840	291.06284301689
10	1146732	860	436.39490689332
10	1192905	880	548.96248145383
10	1240251	900	583.65476970756
10	1288859	920	590.31266197922
10	1338313	940	588.80345872645
10	1388836	960	536.30933791998
10	1440819	980	579.66314474146
10	1493345	1000	292.29825354433
10	1547512	1020	555.41842464557
10	1603782	1040	397.19746497699
10	1660905	1060	799.34697988535
10	1718639	1080	590.5329578438
10	1778561	1100	596.01533753554
10	1840627	1120	708.77326952629
10	1904095	1140	348.98130284423
10	1969800	1160	342.41815822041
10	2036055	1180	747.80580245443
10	2104152	1200	650.0546982661
10	2175066	1220	501.53495998813
10	2246653	1240	687.90796884726
10	2320518	1260	794.45999184867
10	2396424	1280	599.37356641153
10	2474622	1300	678.85447227103
10	2553807	1320	602.83989128194
10	2635964	1340	751.70789205393
10	2719982	1360	802.27985684071
10	2805505	1380	645.97141397812
10	2893686	1400	702.28968057113
10	2983722	1420	763.66362728873
10	3075702	1440	598.93989257257
10	3169654	1460	600.11771146514
10	3266184	1480	611.81055109538
10	3364601	1500	596.11595173539
10	3465742	1520	591.33440037509
10	3569339	1540	497.63775276076
10	3675376	1560	585.86539743539
10	3783139	1580	420.50028321218
10	3894373	1600	643.24548715049
10	4006695	1620	451.61361854892
10	4121626	1640	715.81425182929
10	4238645	1660	604.50660730069
10	4358625	1680	760.84239733133
10	4480174	1700	496.36944366443
10	4604615	1720	619.25950615921
10	4730670	1740	500.30693761603
10	4858952	1760	700.85157042063
10	4989713	1780	712.6312676252
10	5122890	1800	701.26937823855
10	5258655	1820	790.57370171068
10	5397103	1840	700.63733806083
10	5537095	1860	857.19751809834
10	5680148	1880	853.01927778684
10	5825381	1900	1016.3263841202
10	5974124	1920	1155.1351671718
10	6124792	1940	718.16039374211
10	6277564	1960	408.97651638534
10	6432957	1980	448.88937839943
10	6590833	2000	690.04124193169
11	145313	240	46.623958808923
11	171095	260	48.953163151039
11	198332	280	47.281409940307
11	225448	300	47.66673725777
11	252740	320	48.993799382155
11	279988	340	47.890546758721
11	307078	360	48.08330127972
11	334514	380	47.685207731741
11	361870	400	48.465989765315
11	388901	420	48.412186051057
11	416154	440	47.942073555377
11	443957	460	48.746909825827
11	471988	480	48.803748078953
11	500575	500	48.424046459771
11	529669	520	48.693547706481
11	558968	540	48.62098936903
11	589067	560	50.412602911905
11	619618	580	48.480328249877
11	651057	600	48.448630600853
11	683138	620	49.259912192709
11	716641	640	50.31614677602
11	749896	660	48.483118512496
11	784569	680	49.345871727248
11	820254	700	48.82831066078
11	856856	720	49.460374829776
11	894580	740	49.230236379558
11	933589	760	48.55634143903
11	974112	780	48.442839552152
11	1015524	800	48.589051275903
11	1057494	820	48.242348280988
11	1101797	840	48.510473836149
11	1146732	860	48.488322988146
11	1192905	880	49.905680132167
11	1240251	900	48.63789747563
11	1288859	920	49.192721831602
11	1338313	940	49.066954893871
11	1388836	960	48.755394356362
11	1440819	980	48.305262061789
11	1493345	1000	48.716375590721
11	1547512	1020	50.492584058688
11	1603782	1040	49.649683122124
11	1660905	1060	49.959186242834
11	1718639	1080	49.211079820316
11	1778561	1100	49.667944794628
11	1840627	1120	50.626662109021
11	1904095	1140	49.85447183489
11	1969800	1160	48.916879745773
11	2036055	1180	49.853720163629
11	2104152	1200	50.004207558931
11	2175066	1220	50.153495998813
11	2246653	1240	49.13628348909
11	2320518	1260	49.653749490542
11	2396424	1280	49.94779720096
11	2474622	1300	48.489605162216
11	2553807	1320	50.236657606828
11	2635964	1340	50.113859470262
11	2719982	1360	50.142491052544
11	2805505	1380	49.690108767548
11	2893686	1400	50.163548612223
11	2983722	1420	50.910908485915
11	3075702	1440	49.911657714381
11	3169654	1460	50.009809288761
11	3266184	1480	50.984212591282
11	3364601	1500	49.676329311282
11	3465742	1520	49.277866697924
11	3569339	1540	49.763775276076
11	3675376	1560	48.822116452949
11	3783139	1580	52.562535401523
11	3894373	1600	49.480422088499
11	4006695	1620	50.17929094988
11	4121626	1640	51.129589416378
11	4238645	1660	50.375550608391
11	4358625	1680	50.722826488755
11	4480174	1700	49.636944366443
11	4604615	1720	51.604958846601
11	4730670	1740	50.030693761603
11	4858952	1760	50.060826458616
11	4989713	1780	50.9022334018
11	5122890	1800	50.090669874182
11	5258655	1820	49.410856356917
11	5397103	1840	50.045524147202
11	5537095	1860	50.423383417549
11	5680148	1880	50.177604575696
11	5825381	1900	50.816319206011
11	5974124	1920	50.223268137905
11	6124792	1940	51.29717098158
11	6277564	1960	51.122064548167
11	6432957	1980	49.876597599936
11	6590833	2000	49.288660137978
12	145313	240	0.29038270025398
12	171095	260	1.3008247654278
12	198332	280	1.2747249574127
12	225448	300	1.2031142786581
12	252740	320	1.1513753919232
12	279988	340	1.3085215874145
12	307078	360	2.1049206409177
12	334514	380	1.5735927775966
12	361870	400	1.5337338241667
12	388901	420	1.5449151361224
12	416154	440	0.59204083629623
12	443957	460	1.9791151804072
12	471988	480	2.8483030984214
12	500575	500	1.2274841109007
12	529669	520	2.6344947965015
12	558968	540	2.3688244735983
12	589067	560	3.7174843627344
12	619618	580	1.8000481896006