file 72682 1427444759                                           
version 2
run statisticRVV-150-20150327-08:43:48-17340
attr c 9
attr configname statisticRVV
attr datetime 20150327-08:43:48
attr experiment statisticRVV
attr inifile omnetpp.ini
attr iterationvars "$sc=\"erlangen-medium.launchd.xml\", $p=1/10, $c=9"
attr iterationvars2 "$sc=\"erlangen-medium.launchd.xml\", $p=1/10, $c=9, $repetition=0"
attr measurement "$sc=\"erlangen-medium.launchd.xml\", $p=1/10, $c=9"
attr network RSUExampleScenario
attr p 1/10
attr processid 17340
attr repetition 0
attr replication #0
attr resultdir results
attr runnumber 150
attr sc "\"erlangen-medium.launchd.xml\""
attr seedset 150

vector 0  RSUExampleScenario.rsu[0].appl  Number_CH  ETV
vector 1  RSUExampleScenario.rsu[0].appl  Number_ON  ETV
vector 2  RSUExampleScenario.rsu[0].appl  Number_FN  ETV
vector 3  RSUExampleScenario.rsu[0].appl  Number_CH_Losts  ETV
vector 4  RSUExampleScenario.rsu[0].appl  Number_CH_Losts  ETV
vector 5  RSUExampleScenario.rsu[0].appl  Mean_Cluster_Size  ETV
vector 6  RSUExampleScenario.rsu[0].appl  StdDev_Cluster_Size  ETV
vector 7  RSUExampleScenario.rsu[0].appl  Variance_Cluster_Size  ETV
vector 8  RSUExampleScenario.rsu[0].appl  Mean_Neighbors  ETV
vector 9  RSUExampleScenario.rsu[0].appl  StdDev_Neighbors  ETV
vector 10  RSUExampleScenario.rsu[0].appl  Variance_Neighbors  ETV
vector 11  RSUExampleScenario.rsu[0].appl  Total_CH_Utility  ETV
vector 12  RSUExampleScenario.rsu[0].appl  Mean_CH_Utility  ETV
vector 13  RSUExampleScenario.rsu[0].appl  StdDev_CH_Utility  ETV
vector 14  RSUExampleScenario.rsu[0].appl  Variance_CH_Utility  ETV
vector 15  RSUExampleScenario.rsu[0].appl  Total_exp_CH_Utility  ETV
vector 16  RSUExampleScenario.rsu[0].appl  Mean_exp_CH_Utility  ETV
vector 17  RSUExampleScenario.rsu[0].appl  StdDev_exp_CH_Utility  ETV
vector 18  RSUExampleScenario.rsu[0].appl  Variance_exp_CH_Utility  ETV
vector 19  RSUExampleScenario.rsu[0].appl  Total_ON_Utility  ETV
vector 20  RSUExampleScenario.rsu[0].appl  Mean_ON_Utility  ETV
vector 21  RSUExampleScenario.rsu[0].appl  StdDev_ON_Utility  ETV
vector 22  RSUExampleScenario.rsu[0].appl  Variance_ON_Utility  ETV
vector 23  RSUExampleScenario.rsu[0].appl  Total_exp_ON_Utility  ETV
vector 24  RSUExampleScenario.rsu[0].appl  Mean_exp_ON_Utility  ETV
vector 25  RSUExampleScenario.rsu[0].appl  StdDev_exp_ON_Utility  ETV
vector 26  RSUExampleScenario.rsu[0].appl  Variance_exp_ON_Utility  ETV
0	2436 1610 145169 7123766 240 2000 89 4 23 1197 17699
1	4046 1659 145169 7123766 240 2000 89 34 139 7993 777269
2	5705 1626 145169 7123766 240 2000 89 11 85 3376 154224
3	7331 1537 145169 7123766 240 2000 89 0 3 35 53
4	8868 1626 145169 7123766 240 2000 89 10 85 3325 150949
5	10494 2432 145169 7123766 240 2000 89 4.3809523809524 8.5714285714286 604.07949912201 4160.0176622115
6	12926 2764 145169 7123766 240 2000 89 0.53452248382485 3.2265638511758 179.16395676842 391.12903306946
7	15690 2677 145169 7123766 240 2000 89 0.28571428571429 10.410714285714 391.12903306946 2171.6440225769
8	18367 2697 145169 7123766 240 2000 89 22.021276595745 62.102040816327 3393.4101500648 144600.93943865
9	21064 2774 145169 7123766 240 2000 89 3.3093551489424 31.391323248645 1396.198704769 30469.698778526
10	23838 2867 145169 7123766 240 2000 89 10.951831501832 985.41517530089 30469.698778526 20242167.307898
11	26705 2861 145169 7123766 240 2000 89 186.61219793984 1120.7387048133 57488.036121357 41065158.665422
12	29566 2863 145169 7123766 240 2000 89 45.740030855171 49.356897033089 4259.5261752304 203926.08132414
13	32429 2867 145169 7123766 240 2000 89 0.47417066465635 2.9087065576206 164.7074491829 324.73412238542
14	35296 2870 145169 7123766 240 2000 89 0.22483781922064 8.4605738383451 324.73412238542 1426.7194079913
15	38166 2859 145169 7123766 240 2000 89 180.65472496431 1135.7860841901 56082.168211911 38681350.19136
16	41025 2867 145169 7123766 240 2000 89 44.642884508759 46.536352599186 4052.5678774358 184545.02781308
17	43892 2906 145169 7123766 240 2000 89 0.30987986483273 1.8970402080285 88.119691277066 95.890664920365
18	46798 2905 145169 7123766 240 2000 89 0.09602553062875 3.5987615508768 95.890664920365 140.75289085336
19	49703 2864 145169 7123766 240 2000 89 1584.1842879036 6756.4828089369 383579.21119123 1800804337.9735
20	52567 2860 145169 7123766 240 2000 89 45.880753651419 49.395317824997 4255.812112983 203567.19312888
21	55427 2859 145169 7123766 240 2000 89 1.7314937869753 3.5560958027578 231.92933115673 617.66528013116
22	58286 2862 145169 7123766 240 2000 89 2.9980707343342 12.645817358392 617.66528013116 4628.1829466715
23	61148 2865 145169 7123766 240 2000 89 3177.6231913011 8114.5367478656 515685.54120842 3146514546.4844
24	64013 2864 145169 7123766 240 2000 89 44.755256215508 45.740798654097 4052.6574168402 184543.50340196
25	66877 2901 145169 7123766 240 2000 89 0.29995207869476 1.5540401606421 92.430628588295 100.39234112917
26	69778 2904 145169 7123766 240 2000 89 0.089971249513309 2.4150408208886 100.39234112917 130.81750513156
