version 2
run statisticRVV-154-20150325-17:00:49-5792
attr c 9
attr configname statisticRVV
attr datetime 20150325-17:00:49
attr experiment statisticRVV
attr inifile omnetpp.ini
attr iterationvars "$sc=\"erlangen-medium.launchd.xml\", $p=1/10, $c=9"
attr iterationvars2 "$sc=\"erlangen-medium.launchd.xml\", $p=1/10, $c=9, $repetition=4"
attr measurement "$sc=\"erlangen-medium.launchd.xml\", $p=1/10, $c=9"
attr network RSUExampleScenario
attr p 1/10
attr processid 5792
attr repetition 4
attr replication #4
attr resultdir results
attr runnumber 154
attr sc "\"erlangen-medium.launchd.xml\""
attr seedset 154

vector 0  RSUExampleScenario.rsu[0].appl  Number_CH  ETV
vector 1  RSUExampleScenario.rsu[0].appl  Number_ON  ETV
vector 2  RSUExampleScenario.rsu[0].appl  Number_FN  ETV
vector 3  RSUExampleScenario.rsu[0].appl  Number_CH_Losts  ETV
vector 4  RSUExampleScenario.rsu[0].appl  Mean_Cluster_Size  ETV
vector 5  RSUExampleScenario.rsu[0].appl  StdDev_Cluster_Size  ETV
vector 6  RSUExampleScenario.rsu[0].appl  Variance_Cluster_Size  ETV
vector 7  RSUExampleScenario.rsu[0].appl  Mean_Neighbors  ETV
vector 8  RSUExampleScenario.rsu[0].appl  StdDev_Neighbors  ETV
vector 9  RSUExampleScenario.rsu[0].appl  Variance_Neighbors  ETV
vector 10  RSUExampleScenario.rsu[0].appl  Total_CH_Utility  ETV
vector 11  RSUExampleScenario.rsu[0].appl  Mean_CH_Utility  ETV
vector 12  RSUExampleScenario.rsu[0].appl  StdDev_CH_Utility  ETV
vector 13  RSUExampleScenario.rsu[0].appl  Variance_CH_Utility  ETV
vector 14  RSUExampleScenario.rsu[0].appl  Total_exp_CH_Utility  ETV
vector 15  RSUExampleScenario.rsu[0].appl  Mean_exp_CH_Utility  ETV
vector 16  RSUExampleScenario.rsu[0].appl  StdDev_exp_CH_Utility  ETV
vector 17  RSUExampleScenario.rsu[0].appl  Variance_exp_CH_Utility  ETV
vector 18  RSUExampleScenario.rsu[0].appl  Total_ON_Utility  ETV
vector 19  RSUExampleScenario.rsu[0].appl  Mean_ON_Utility  ETV
vector 20  RSUExampleScenario.rsu[0].appl  StdDev_ON_Utility  ETV
vector 21  RSUExampleScenario.rsu[0].appl  Variance_ON_Utility  ETV
vector 22  RSUExampleScenario.rsu[0].appl  Total_exp_ON_Utility  ETV
vector 23  RSUExampleScenario.rsu[0].appl  Mean_exp_ON_Utility  ETV
vector 24  RSUExampleScenario.rsu[0].appl  StdDev_exp_ON_Utility  ETV
vector 25  RSUExampleScenario.rsu[0].appl  Variance_exp_ON_Utility  ETV
0	145950	240	6
0	171878	260	4
0	199027	280	7
0	226259	300	8
0	253532	320	10
0	280880	340	10
0	307990	360	9
0	335241	380	8
0	362668	400	9
0	390202	420	10
0	418767	440	7
0	447593	460	13
0	476863	480	5
0	507075	500	3
0	537524	520	8
0	568642	540	5
0	600147	560	8
0	632661	580	7
0	665838	600	9
0	699770	620	6
0	734686	640	8
0	770274	660	15
0	807579	680	9
0	846032	700	13
0	885288	720	10
0	925775	740	8
0	967517	760	13
0	1010218	780	13
0	1054555	800	6
0	1099804	820	11
0	1145956	840	7
0	1193274	860	8
0	1242318	880	3
0	1291882	900	8
0	1343221	920	4
0	1395339	940	13
0	1448221	960	9
0	1503154	980	12
0	1558980	1000	10
0	1616878	1020	11
0	1676400	1040	9
0	1737168	1060	14
0	1799301	1080	12
0	1863534	1100	13
0	1929007	1120	13
0	1996307	1140	8
0	2065387	1160	16
0	2136045	1180	14
0	2208577	1200	11
0	2282974	1220	7
0	2359539	1240	10
0	2438102	1260	8
0	2518502	1280	8
0	2601799	1300	16
0	2686204	1320	13
0	2773154	1340	16
0	2861854	1360	12
0	2952195	1380	12
0	3045194	1400	14
0	3140446	1420	11
0	3237482	1440	17
0	3336334	1460	12
0	3438272	1480	13
0	3541991	1500	17
0	3647135	1520	16
0	3755121	1540	23
0	3864980	1560	9
0	3976649	1580	16
0	4091121	1600	16
0	4208524	1620	13
0	4327710	1640	11
0	4449210	1660	13
0	4573228	1680	19
0	4699774	1700	12
0	4828328	1720	17
0	4959626	1740	15
0	5093476	1760	10
0	5229248	1780	16
0	5368052	1800	14
0	5509097	1820	18
0	5653196	1840	18
0	5800229	1860	17
0	5948734	1880	17
0	6099314	1900	9
0	6253389	1920	22
0	6410522	1940	16
0	6568948	1960	19
0	6730222	1980	16
0	6894240	2000	13
1	145950	240	7
1	171878	260	6
1	199027	280	10
1	226259	300	10
1	253532	320	13
1	280880	340	14
1	307990	360	12
1	335241	380	10
1	362668	400	12
1	390202	420	13
1	418767	440	9
1	447593	460	16
1	476863	480	6
1	507075	500	4
1	537524	520	10
1	568642	540	6
1	600147	560	11
1	632661	580	12
1	665838	600	14
1	699770	620	8
1	734686	640	11
1	770274	660	21
1	807579	680	11
1	846032	700	16
1	885288	720	15
1	925775	740	10
1	967517	760	16
1	1010218	780	21
1	1054555	800	7
1	1099804	820	17
1	1145956	840	11
1	1193274	860	12
1	1242318	880	5
1	1291882	900	14
1	1343221	920	5
1	1395339	940	19
1	1448221	960	13
1	1503154	980	18
1	1558980	1000	14
1	1616878	1020	17
1	1676400	1040	13
1	1737168	1060	22
1	1799301	1080	18
1	1863534	1100	18
1	1929007	1120	18
1	1996307	1140	10
1	2065387	1160	25
1	2136045	1180	25
1	2208577	1200	16
1	2282974	1220	10
1	2359539	1240	14
1	2438102	1260	9
1	2518502	1280	11
1	2601799	1300	20
1	2686204	1320	19
1	2773154	1340	23
1	2861854	1360	15
1	2952195	1380	17
1	3045194	1400	17
1	3140446	1420	15
1	3237482	1440	23
1	3336334	1460	16
1	3438272	1480	19
1	3541991	1500	24
1	3647135	1520	23
1	3755121	1540	35
1	3864980	1560	13
1	3976649	1580	21
1	4091121	1600	23
1	4208524	1620	22
1	4327710	1640	18
1	4449210	1660	19
1	4573228	1680	32
1	4699774	1700	17
1	4828328	1720	27
1	4959626	1740	22
1	5093476	1760	13
1	5229248	1780	25
1	5368052	1800	18
1	5509097	1820	23
1	5653196	1840	30
1	5800229	1860	26
1	5948734	1880	26
1	6099314	1900	14
1	6253389	1920	33
1	6410522	1940	24
1	6568948	1960	25
1	6730222	1980	24
1	6894240	2000	22
2	145950	240	66
2	171878	260	76
2	199027	280	74
2	226259	300	76
2	253532	320	70
2	280880	340	70
2	307990	360	73
2	335241	380	76
2	362668	400	72
2	390202	420	71
2	418767	440	82
2	447593	460	70
2	476863	480	88
2	507075	500	94
2	537524	520	84
2	568642	540	90
2	600147	560	87
2	632661	580	86
2	665838	600	83
2	699770	620	92
2	734686	640	90
2	770274	660	74
2	807579	680	92
2	846032	700	84
2	885288	720	88
2	925775	740	97
2	967517	760	88
2	1010218	780	83
2	1054555	800	107
2	1099804	820	92
2	1145956	840	104
2	1193274	860	102
2	1242318	880	117
2	1291882	900	102
2	1343221	920	119
2	1395339	940	94
2	1448221	960	106
2	1503154	980	101
2	1558980	1000	107
2	1616878	1020	106
2	1676400	1040	113
2	1737168	1060	100
2	1799301	1080	108
2	1863534	1100	108
2	1929007	1120	110
2	1996307	1140	122
2	2065387	1160	100
2	2136045	1180	105
2	2208577	1200	117
2	2282974	1220	128
2	2359539	1240	122
2	2438102	1260	129
2	2518502	1280	130
2	2601799	1300	115
2	2686204	1320	118
2	2773154	1340	115
2	2861854	1360	127
2	2952195	1380	125
2	3045194	1400	125
2	3140446	1420	133
2	3237482	1440	119
2	3336334	1460	132
2	3438272	1480	129
2	3541991	1500	122
2	3647135	1520	126
2	3755121	1540	108
2	3864980	1560	143
2	3976649	1580	131
2	4091121	1600	130
2	4208524	1620	135
2	4327710	1640	143
2	4449210	1660	140
2	4573228	1680	122
2	4699774	1700	146
2	4828328	1720	132
2	4959626	1740	140
2	5093476	1760	155
2	5229248	1780	138
2	5368052	1800	148
2	5509097	1820	142
2	5653196	1840	136
2	5800229	1860	144
2	5948734	1880	142
2	6099314	1900	164
2	6253389	1920	135
2	6410522	1940	151
2	6568948	1960	147
2	6730222	1980	152
2	6894240	2000	158
3	145950	240	7
3	171878	260	3
3	199027	280	2
3	226259	300	4
3	253532	320	4
3	280880	340	2
3	307990	360	5
3	335241	380	3
3	362668	400	2
3	390202	420	2
3	418767	440	1
3	447593	460	5
3	476863	480	3
3	507075	500	4
3	537524	520	1
3	568642	540	0
3	600147	560	0
3	632661	580	2
3	665838	600	4
3	699770	620	2
3	734686	640	2
3	770274	660	4
3	807579	680	4
3	846032	700	0
3	885288	720	9
3	925775	740	2
3	967517	760	5
3	1010218	780	4
3	1054555	800	5
3	1099804	820	2
3	1145956	840	0
3	1193274	860	5
3	1242318	880	1
3	1291882	900	2
3	1343221	920	2
3	1395339	940	4
3	1448221	960	3
3	1503154	980	6
3	1558980	1000	5
3	1616878	1020	4
3	1676400	1040	0
3	1737168	1060	3
3	1799301	1080	3
3	1863534	1100	2
3	1929007	1120	2
3	1996307	1140	1
3	2065387	1160	2
3	2136045	1180	5
3	2208577	1200	2
3	2282974	1220	1
3	2359539	1240	3
3	2438102	1260	2
3	2518502	1280	6
3	2601799	1300	3
3	2686204	1320	0
3	2773154	1340	4
3	2861854	1360	5
3	2952195	1380	8
3	3045194	1400	2
3	3140446	1420	3
3	3237482	1440	3
3	3336334	1460	1
3	3438272	1480	1
3	3541991	1500	4
3	3647135	1520	5
3	3755121	1540	3
3	3864980	1560	2
3	3976649	1580	7
3	4091121	1600	3
3	4208524	1620	4
3	4327710	1640	3
3	4449210	1660	4
3	4573228	1680	2
3	4699774	1700	5
3	4828328	1720	3
3	4959626	1740	3
3	5093476	1760	3
3	5229248	1780	7
3	5368052	1800	5
3	5509097	1820	6
3	5653196	1840	4
3	5800229	1860	4
3	5948734	1880	7
3	6099314	1900	2
3	6253389	1920	3
3	6410522	1940	6
3	6568948	1960	3
3	6730222	1980	2
3	6894240	2000	5
4	145950	240	1.1666666666667
4	171878	260	1.5
4	199027	280	1.4285714285714
4	226259	300	1.25
4	253532	320	1.3
4	280880	340	1.4
4	307990	360	1.3333333333333
4	335241	380	1.25
4	362668	400	1.3333333333333
4	390202	420	1.3
4	418767	440	1.2857142857143
4	447593	460	1.2307692307692
4	476863	480	1.2
4	507075	500	1.3333333333333
4	537524	520	1.25
4	568642	540	1.2
4	600147	560	1.375
4	632661	580	1.7142857142857
4	665838	600	1.5555555555556
4	699770	620	1.3333333333333
4	734686	640	1.375
4	770274	660	1.4
4	807579	680	1.2222222222222
4	846032	700	1.2307692307692
4	885288	720	1.5
4	925775	740	1.25
4	967517	760	1.2307692307692
4	1010218	780	1.6153846153846
4	1054555	800	1.1666666666667
4	1099804	820	1.5454545454545
4	1145956	840	1.5714285714286
4	1193274	860	1.5
4	1242318	880	1.6666666666667
4	1291882	900	1.75
4	1343221	920	1.25
4	1395339	940	1.4615384615385
4	1448221	960	1.4444444444444
4	1503154	980	1.5
4	1558980	1000	1.4
4	1616878	1020	1.5454545454545
4	1676400	1040	1.4444444444444
4	1737168	1060	1.5714285714286
4	1799301	1080	1.5
4	1863534	1100	1.3846153846154
4	1929007	1120	1.3846153846154
4	1996307	1140	1.25
4	2065387	1160	1.5625
4	2136045	1180	1.7857142857143
4	2208577	1200	1.4545454545455
4	2282974	1220	1.4285714285714
4	2359539	1240	1.4
4	2438102	1260	1.125
4	2518502	1280	1.375
4	2601799	1300	1.25
4	2686204	1320	1.4615384615385
4	2773154	1340	1.4375
4	2861854	1360	1.25
4	2952195	1380	1.4166666666667
4	3045194	1400	1.2142857142857
4	3140446	1420	1.3636363636364
4	3237482	1440	1.3529411764706
4	3336334	1460	1.3333333333333
4	3438272	1480	1.4615384615385
4	3541991	1500	1.4117647058824
4	3647135	1520	1.4375
4	3755121	1540	1.5217391304348
4	3864980	1560	1.4444444444444
4	3976649	1580	1.3125
4	4091121	1600	1.4375
4	4208524	1620	1.6923076923077
4	4327710	1640	1.6363636363636
4	4449210	1660	1.4615384615385
4	4573228	1680	1.6842105263158
4	4699774	1700	1.4166666666667
4	4828328	1720	1.5882352941176
4	4959626	1740	1.4666666666667
4	5093476	1760	1.3
4	5229248	1780	1.5625
4	5368052	1800	1.2857142857143
4	5509097	1820	1.2777777777778
4	5653196	1840	1.6666666666667
4	5800229	1860	1.5294117647059
4	5948734	1880	1.5294117647059
4	6099314	1900	1.5555555555556
4	6253389	1920	1.5
4	6410522	1940	1.5
4	6568948	1960	1.3157894736842
4	6730222	1980	1.5
4	6894240	2000	1.6923076923077
5	145950	240	0.40824829046386
5	171878	260	0.57735026918963
5	199027	280	0.78679579246944
5	226259	300	0.46291004988628
5	253532	320	0.48304589153965
5	280880	340	0.51639777949432
5	307990	360	0.5
5	335241	380	0.46291004988628
5	362668	400	0.5
5	390202	420	0.48304589153965
5	418767	440	0.48795003647427
5	447593	460	0.43852900965351
5	476863	480	0.44721359549996
5	507075	500	0.57735026918963
5	537524	520	0.46291004988628
5	568642	540	0.44721359549996
5	600147	560	0.51754916950677
5	632661	580	0.48795003647427
5	665838	600	0.52704627669473
5	699770	620	0.51639777949432
5	734686	640	0.51754916950677
5	770274	660	0.50709255283711
5	807579	680	0.4409585518441
5	846032	700	0.43852900965351
5	885288	720	0.52704627669473
5	925775	740	0.46291004988628
5	967517	760	0.43852900965351
5	1010218	780	0.50636968354183
5	1054555	800	0.40824829046386
5	1099804	820	0.68755165095233
5	1145956	840	0.78679579246944
5	1193274	860	0.53452248382485
5	1242318	880	0.57735026918963
5	1291882	900	0.46291004988628
5	1343221	920	0.5
5	1395339	940	0.51887452166277
5	1448221	960	0.52704627669473
5	1503154	980	0.52223296786709
5	1558980	1000	0.51639777949432
5	1616878	1020	0.52223296786709
5	1676400	1040	0.52704627669473
5	1737168	1060	0.5135525910131
5	1799301	1080	0.52223296786709
5	1863534	1100	0.50636968354183
5	1929007	1120	0.50636968354183
5	1996307	1140	0.46291004988628
5	2065387	1160	0.51234753829798
5	2136045	1180	0.42581531362632
5	2208577	1200	0.52223296786709
5	2282974	1220	0.53452248382485
5	2359539	1240	0.51639777949432
5	2438102	1260	0.35355339059327
5	2518502	1280	0.51754916950677
5	2601799	1300	0.44721359549996
5	2686204	1320	0.51887452166277
5	2773154	1340	0.51234753829798
5	2861854	1360	0.45226701686665
5	2952195	1380	0.51492865054444
5	3045194	1400	0.42581531362632
5	3140446	1420	0.50452497910951
5	3237482	1440	0.49259218307189
5	3336334	1460	0.49236596391733
5	3438272	1480	0.51887452166277
5	3541991	1500	0.50729965619589
5	3647135	1520	0.51234753829798
5	3755121	1540	0.51075391845525
5	3864980	1560	0.52704627669473
5	3976649	1580	0.47871355387817
5	4091121	1600	0.51234753829798
5	4208524	1620	0.48038446141526
5	4327710	1640	0.50452497910951
5	4449210	1660	0.51887452166277
5	4573228	1680	0.47756693294092
5	4699774	1700	0.51492865054444
5	4828328	1720	0.50729965619589
5	4959626	1740	0.51639777949432
5	5093476	1760	0.48304589153965
5	5229248	1780	0.51234753829798
5	5368052	1800	0.4688072309385
5	5509097	1820	0.46088859896248
5	5653196	1840	0.48507125007267
5	5800229	1860	0.51449575542753
5	5948734	1880	0.51449575542753
5	6099314	1900	0.52704627669473
5	6253389	1920	0.51176631571916
5	6410522	1940	0.51639777949432
5	6568948	1960	0.47756693294092
5	6730222	1980	0.51639777949432
5	6894240	2000	0.48038446141526
6	145950	240	0.16666666666667
6	171878	260	0.33333333333333
6	199027	280	0.61904761904762
6	226259	300	0.21428571428571
6	253532	320	0.23333333333333
6	280880	340	0.26666666666667
6	307990	360	0.25
6	335241	380	0.21428571428571
6	362668	400	0.25
6	390202	420	0.23333333333333
6	418767	440	0.23809523809524
6	447593	460	0.19230769230769
6	476863	480	0.2
6	507075	500	0.33333333333333
6	537524	520	0.21428571428571
6	568642	540	0.2
6	600147	560	0.26785714285714
6	632661	580	0.23809523809524
6	665838	600	0.27777777777778
6	699770	620	0.26666666666667
6	734686	640	0.26785714285714
6	770274	660	0.25714285714286
6	807579	680	0.19444444444444
6	846032	700	0.19230769230769
6	885288	720	0.27777777777778
6	925775	740	0.21428571428571
6	967517	760	0.19230769230769
6	1010218	780	0.25641025641026
6	1054555	800	0.16666666666667
6	1099804	820	0.47272727272727
6	1145956	840	0.61904761904762
6	1193274	860	0.28571428571429
6	1242318	880	0.33333333333333
6	1291882	900	0.21428571428571
6	1343221	920	0.25
6	1395339	940	0.26923076923077
6	1448221	960	0.27777777777778
6	1503154	980	0.27272727272727
6	1558980	1000	0.26666666666667
6	1616878	1020	0.27272727272727
6	1676400	1040	0.27777777777778
6	1737168	1060	0.26373626373626
6	1799301	1080	0.27272727272727
6	1863534	1100	0.25641025641026
6	1929007	1120	0.25641025641026
6	1996307	1140	0.21428571428571
6	2065387	1160	0.2625
6	2136045	1180	0.18131868131868
6	2208577	1200	0.27272727272727
6	2282974	1220	0.28571428571429
6	2359539	1240	0.26666666666667
6	2438102	1260	0.125
6	2518502	1280	0.26785714285714
6	2601799	1300	0.2
6	2686204	1320	0.26923076923077
6	2773154	1340	0.2625
6	2861854	1360	0.20454545454545
6	2952195	1380	0.26515151515152
6	3045194	1400	0.18131868131868
6	3140446	1420	0.25454545454545
6	3237482	1440	0.24264705882353
6	3336334	1460	0.24242424242424
6	3438272	1480	0.26923076923077
6	3541991	1500	0.25735294117647
6	3647135	1520	0.2625
6	3755121	1540	0.26086956521739
6	3864980	1560	0.27777777777778
6	3976649	1580	0.22916666666667
6	4091121	1600	0.2625
6	4208524	1620	0.23076923076923
6	4327710	1640	0.25454545454545
6	4449210	1660	0.26923076923077
6	4573228	1680	0.2280701754386
6	4699774	1700	0.26515151515152
6	4828328	1720	0.25735294117647
6	4959626	1740	0.26666666666667
6	5093476	1760	0.23333333333333
6	5229248	1780	0.2625
6	5368052	1800	0.21978021978022
6	5509097	1820	0.21241830065359
6	5653196	1840	0.23529411764706
6	5800229	1860	0.26470588235294
6	5948734	1880	0.26470588235294
6	6099314	1900	0.27777777777778
6	6253389	1920	0.26190476190476
6	6410522	1940	0.26666666666667
6	6568948	1960	0.2280701754386
6	6730222	1980	0.26666666666667
6	6894240	2000	0.23076923076923
7	145950	240	23
7	171878	260	22.604651162791
7	199027	280	22.494505494505
7	226259	300	22.483870967742
7	253532	320	22.354838709677
7	280880	340	22.308510638298
7	307990	360	22.505376344086
7	335241	380	22.340425531915
7	362668	400	22.365591397849
7	390202	420	22.265957446809
7	418767	440	22.19587628866
7	447593	460	21.848484848485
7	476863	480	22.161616161616
7	507075	500	22.32
7	537524	520	22.524752475248
7	568642	540	22.742574257426
7	600147	560	22.339622641509
7	632661	580	22.838095238095
7	665838	600	23.405660377358
7	699770	620	23.490566037736
7	734686	640	23.862385321101
7	770274	660	24.009090909091
7	807579	680	24.616071428571
7	846032	700	25.16814159292
7	885288	720	25.690265486726
7	925775	740	26.678260869565
7	967517	760	27.068965517241
7	1010218	780	27.418803418803
7	1054555	800	28.547008547009
7	1099804	820	28.5
7	1145956	840	28.893442622951
7	1193274	860	29.05737704918
7	1242318	880	29.104
7	1291882	900	29.508064516129
7	1343221	920	29.7890625
7	1395339	940	30.650793650794
7	1448221	960	30.6875
7	1503154	980	30.824427480916
7	1558980	1000	31.496183206107
7	1616878	1020	31.55223880597
7	1676400	1040	32.407407407407
7	1737168	1060	33.176470588235
7	1799301	1080	33.569343065693
7	1863534	1100	33.942446043165
7	1929007	1120	34.432624113475
7	1996307	1140	35.35
7	2065387	1160	36.234042553191
7	2136045	1180	35.986111111111
7	2208577	1200	36.909722222222
7	2282974	1220	37.820689655172
7	2359539	1240	38.86301369863
7	2438102	1260	39.404109589041
7	2518502	1280	39.751677852349
7	2601799	1300	40.569536423841
7	2686204	1320	41.506666666667
7	2773154	1340	42.123376623377
7	2861854	1360	42.777777777778
7	2952195	1380	43.350649350649
7	3045194	1400	43.890322580645
7	3140446	1420	44.427672955975
7	3237482	1440	45.044025157233
7	3336334	1460	45.90625
7	3438272	1480	46.95625
7	3541991	1500	47.460122699387
7	3647135	1520	47.612121212121
7	3755121	1540	48.210843373494
7	3864980	1560	49.460606060606
7	3976649	1580	49.184523809524
7	4091121	1600	50.467455621302
7	4208524	1620	51.094117647059
7	4327710	1640	51.511627906977
7	4449210	1660	51.813953488372
7	4573228	1680	52.14450867052
7	4699774	1700	52.925714285714
7	4828328	1720	53.125
7	4959626	1740	53.796610169492
7	5093476	1760	54.640449438202
7	5229248	1780	55.178770949721
7	5368052	1800	56.340782122905
7	5509097	1820	55.857142857143
7	5653196	1840	56.603260869565
7	5800229	1860	57.311827956989
7	5948734	1880	57.962162162162
7	6099314	1900	58.347593582888
7	6253389	1920	58.378947368421
7	6410522	1940	59.366492146597
7	6568948	1960	60.151832460733
7	6730222	1980	60.708333333333
7	6894240	2000	61.564766839378
8	145950	240	4.4837368459686
8	171878	260	4.4570606768229
8	199027	280	4.3877952610334
8	226259	300	4.3454446493496
8	253532	320	4.3903183040253
8	280880	340	4.5033478484314
8	307990	360	4.1089077568925
8	335241	380	4.871583592498
8	362668	400	4.1801418382336
8	390202	420	4.4773636922388
8	418767	440	4.7514014933704
8	447593	460	4.6562743194569
8	476863	480	4.6107838784326
8	507075	500	4.8469088347652
8	537524	520	3.6512848681141
8	568642	540	3.5683426554818
8	600147	560	4.3290531076236
8	632661	580	3.5222474510215
8	665838	600	3.2653397748876
8	699770	620	3.5355211995886
8	734686	640	3.708019062609
8	770274	660	3.9012946675947
8	807579	680	3.8863251492925
8	846032	700	5.0883316359014
8	885288	720	5.1236141785185
8	925775	740	5.4636724139666
8	967517	760	6.2243898083071
8	1010218	780	5.8930691556346
8	1054555	800	7.1793474471687
8	1099804	820	7.575946012426
8	1145956	840	7.7989270050799
8	1193274	860	8.0085689442212
8	1242318	880	8.6805529777774
8	1291882	900	9.0719759392846
8	1343221	920	9.3410046364462
8	1395339	940	9.3066148177025
8	1448221	960	9.9484893800457
8	1503154	980	10.243557762381
8	1558980	1000	10.944175862989
8	1616878	1020	11.376381789446
8	1676400	1040	11.940334438862
8	1737168	1060	12.499411750864
8	1799301	1080	12.946607334627
8	1863534	1100	13.133522648624
8	1929007	1120	13.489310564051
8	1996307	1140	13.82570070557
8	2065387	1160	14.716675817333
8	2136045	1180	15.300251888375
8	2208577	1200	15.734205397881
8	2282974	1220	15.934182755216
8	2359539	1240	16.613094186249
8	2438102	1260	17.284068313842
8	2518502	1280	17.935660552739
8	2601799	1300	18.154341972386
8	2686204	1320	18.860756696822
8	2773154	1340	20.00598862043
8	2861854	1360	19.965833389167
8	2952195	1380	20.507461568116
8	3045194	1400	20.913416976561
8	3140446	1420	21.961260229771
8	3237482	1440	22.38086488073
8	3336334	1460	22.720006664396
8	3438272	1480	23.583745301644
8	3541991	1500	23.942122960103
8	3647135	1520	24.456927762803
8	3755121	1540	24.811729933939
8	3864980	1560	25.270849148844
8	3976649	1580	25.98240765511
8	4091121	1600	26.138603886406
8	4208524	1620	26.046441694721
8	4327710	1640	26.434402618158
8	4449210	1660	26.800764424774
8	4573228	1680	27.086573873505
8	4699774	1700	27.157483916529
8	4828328	1720	26.895485547897
8	4959626	1740	27.591858767795
8	5093476	1760	27.803079612789
8	5229248	1780	28.225643704367
8	5368052	1800	28.072159454939
8	5509097	1820	28.723129236168
8	5653196	1840	28.944080063623
8	5800229	1860	28.982745470692
8	5948734	1880	29.154268754404
8	6099314	1900	29.720237341227
8	6253389	1920	30.161357578027
8	6410522	1940	30.470723269682
8	6568948	1960	30.450183376739
8	6730222	1980	30.960510793934
8	6894240	2000	31.054508564118
9	145950	240	20.103896103896
9	171878	260	19.865389876881
9	199027	280	19.252747252747
9	226259	300	18.882889200561
9	253532	320	19.274894810659
9	280880	340	20.280141843972
9	307990	360	16.883122954652
9	335241	380	23.732326698696
9	362668	400	17.473585787751
9	390202	420	20.046785632578
9	418767	440	22.575816151203
9	447593	460	21.680890538033
9	476863	480	21.259327973614
9	507075	500	23.492525252525
9	537524	520	13.331881188119
9	568642	540	12.733069306931
9	600147	560	18.740700808625
9	632661	580	12.406227106227
9	665838	600	10.662443845463
9	699770	620	12.49991015274
9	734686	640	13.749405368671
9	770274	660	15.220100083403
9	807579	680	15.103523166023
9	846032	700	25.891118836915
9	885288	720	26.251422250316
9	925775	740	29.85171624714
9	967517	760	38.743028485757
9	1010218	780	34.728264073092
9	1054555	800	51.543029767168
9	1099804	820	57.394957983193
9	1145956	840	60.823262430565
9	1193274	860	64.137176534345
9	1242318	880	75.352
9	1291882	900	82.300747442958
9	1343221	920	87.25436761811
9	1395339	940	86.613079365079
9	1448221	960	98.972440944882
9	1503154	980	104.93047563124
9	1558980	1000	119.77498532002
9	1616878	1020	129.42206261923
9	1676400	1040	142.57158651189
9	1737168	1060	156.23529411765
9	1799301	1080	167.61464147703
9	1863534	1100	172.48941716192
9	1929007	1120	181.96149949341
9	1996307	1140	191.15
9	2065387	1160	216.58054711246
9	2136045	1180	234.09770784771
9	2208577	1200	247.56521950272
9	2282974	1220	253.89818007663
9	2359539	1240	275.99489844119
9	2438102	1260	298.73901747756
9	2518502	1280	321.68791946309
9	2601799	1300	329.58013245033
9	2686204	1320	355.72814317673
9	2773154	1340	400.23958068076
9	2861854	1360	398.63450292398
9	2952195	1380	420.55597996774
9	3045194	1400	437.37100963553
9	3140446	1420	482.29695087971
9	3237482	1440	500.90311280949
9	3336334	1460	516.19870283019
9	3438272	1480	556.19304245283
9	3541991	1500	573.2252518367
9	3647135	1520	598.14131559497
9	3755121	1540	615.62194231471
9	3864980	1560	638.61581670362
9	3976649	1580	675.08550755632
9	4091121	1600	683.22661313046
9	4208524	1620	678.41712495649
9	4327710	1640	698.77764177887
9	4449210	1660	718.28097375221
9	4573228	1680	733.68248420487
9	4699774	1700	737.52893267652
9	4828328	1720	723.36714285714
9	4959626	1740	761.31067026194
9	5093476	1760	773.01123595506
9	5229248	1780	796.68696252589
9	5368052	1800	788.0461364635
9	5509097	1820	825.0181531176
9	5653196	1840	837.75977072939
9	5800229	1860	839.99953501889
9	5948734	1880	849.971386604
9	6099314	1900	883.29250761888
9	6253389	1920	909.7074909496
9	6410522	1940	928.46497657757
9	6568948	1960	927.21366767705
9	6730222	1980	958.55322862129
9	6894240	2000	964.38250215889
10	145950	240	284.45292017825
10	171878	260	186.90753424536
10	199027	280	336.21526513963
10	226259	300	391.52333736482
10	253532	320	478.49350805188
10	280880	340	487.1483701038
10	307990	360	424.83277029759
10	335241	380	374.1651605519
10	362668	400	430.07373959444
10	390202	420	477.80770606086
10	418767	440	334.62087839348
10	447593	460	621.77542310908
10	476863	480	246.89253635504
10	507075	500	148.35120016838
10	537524	520	384.74867756692
10	568642	540	243.72497729025
10	600147	560	389.81228715806
10	632661	580	348.57504240602
10	665838	600	436.10166126455
10	699770	620	299.28009180209
10	734686	640	389.04053828309
10	770274	660	726.25932530459
10	807579	680	442.35155261521
10	846032	700	641.42042096747
10	885288	720	481.43594539152
10	925775	740	402.36709633819
10	967517	760	632.78665296871
10	1010218	780	631.28642396148
10	1054555	800	293.06212907419
10	1099804	820	539.91942545142
10	1145956	840	345.5750817346
10	1193274	860	392.20733472167
10	1242318	880	149.59307333698
10	1291882	900	400.43451985475
10	1343221	920	191.71381772007
10	1395339	940	647.04752067856
10	1448221	960	448.66253076388
10	1503154	980	594.41818285276
10	1558980	1000	489.73267468652
10	1616878	1020	549.23325421945
10	1676400	1040	455.33975032058
10	1737168	1060	688.17124890434
10	1799301	1080	601.80260530295
10	1863534	1100	645.98650439648
10	1929007	1120	659.72024449596
10	1996307	1140	402.81971133017
10	2065387	1160	790.645141377
10	2136045	1180	693.06185661352
10	2208577	1200	542.06899722503
10	2282974	1220	351.56874258608
10	2359539	1240	488.09380756204
10	2438102	1260	412.80180232854
10	2518502	1280	405.19521121728
10	2601799	1300	787.47902558174
10	2686204	1320	630.63062267466
10	2773154	1340	800.68053568704
10	2861854	1360	583.992950488
10	2952195	1380	612.72273166407
10	3045194	1400	710.23413859429
10	3140446	1420	557.66491726192
10	3237482	1440	860.23254896781
10	3336334	1460	603.92836337635
10	3438272	1480	654.38835299181
10	3541991	1500	855.49239312331
10	3647135	1520	815.09278734311
10	3755121	1540	1137.7722031327
10	3864980	1560	443.73032797165
10	3976649	1580	795.16548989409
10	4091121	1600	823.2764308325
10	4208524	1620	672.11306490205
10	4327710	1640	558.10124581473
10	4449210	1660	650.10741220229
10	4573228	1680	972.60254762578
10	4699774	1700	616.24624249908
10	4828328	1720	866.33450533981
10	4959626	1740	772.41533410367
10	5093476	1760	504.0479865584
10	5229248	1780	798.94039218781
10	5368052	1800	706.50684110234
10	5509097	1820	914.95411483492
10	5653196	1840	906.26166454873
10	5800229	1860	854.65372234266
10	5948734	1880	871.17036171549
10	6099314	1900	444.22339152651
10	6253389	1920	1120.8006830281
10	6410522	1940	805.36313668562
10	6568948	1960	983.51209468362
10	6730222	1980	806.3539750356
10	6894240	2000	650.32757017107
11	145950	240	47.408820029708
11	171878	260	46.72688356134
11	199027	280	48.030752162804
11	226259	300	48.940417170602
11	253532	320	47.849350805188
11	280880	340	48.71483701038
11	307990	360	47.203641144177
11	335241	380	46.770645068987
11	362668	400	47.785971066049
11	390202	420	47.780770606086
11	418767	440	47.802982627639
11	447593	460	47.828878700699
11	476863	480	49.378507271008
11	507075	500	49.450400056125
11	537524	520	48.093584695865
11	568642	540	48.74499545805
11	600147	560	48.726535894757
11	632661	580	49.796434629431
11	665838	600	48.455740140506
11	699770	620	49.880015300348
11	734686	640	48.630067285386
11	770274	660	48.417288353639
11	807579	680	49.150172512801
11	846032	700	49.340032382113
11	885288	720	48.143594539152
11	925775	740	50.295887042273
11	967517	760	48.675896382209
11	1010218	780	48.560494150883
11	1054555	800	48.843688179031
11	1099804	820	49.083584131947
11	1145956	840	49.367868819228
11	1193274	860	49.025916840208
11	1242318	880	49.864357778993
11	1291882	900	50.054314981844
11	1343221	920	47.928454430017
11	1395339	940	49.772886206043
11	1448221	960	49.851392307098
11	1503154	980	49.534848571063
11	1558980	1000	48.973267468652
11	1616878	1020	49.930295838132
11	1676400	1040	50.593305591176
11	1737168	1060	49.155089207453
11	1799301	1080	50.150217108579
11	1863534	1100	49.69126956896
11	1929007	1120	50.747711115074
11	1996307	1140	50.352463916272
11	2065387	1160	49.415321336062
11	2136045	1180	49.504418329537
11	2208577	1200	49.27899974773
11	2282974	1220	50.224106083725
11	2359539	1240	48.809380756204
11	2438102	1260	51.600225291067
11	2518502	1280	50.64940140216
11	2601799	1300	49.217439098859
11	2686204	1320	48.510047898051
11	2773154	1340	50.04253348044
11	2861854	1360	48.666079207333
11	2952195	1380	51.060227638672
11	3045194	1400	50.731009899592
11	3140446	1420	50.696810660174
11	3237482	1440	50.601914645165
11	3336334	1460	50.327363614696
11	3438272	1480	50.337565614755
11	3541991	1500	50.32308194843
11	3647135	1520	50.943299208945
11	3755121	1540	49.468356657944
11	3864980	1560	49.303369774627
11	3976649	1580	49.697843118381
11	4091121	1600	51.454776927031
11	4208524	1620	51.701004992466
11	4327710	1640	50.736476892248
11	4449210	1660	50.008262477099
11	4573228	1680	51.189607769778
11	4699774	1700	51.35385354159
11	4828328	1720	50.960853255283
11	4959626	1740	51.494355606911
11	5093476	1760	50.40479865584
11	5229248	1780	49.933774511738
11	5368052	1800	50.464774364453
11	5509097	1820	50.830784157496
11	5653196	1840	50.347870252707
11	5800229	1860	50.273748373098
11	5948734	1880	51.245315395029
11	6099314	1900	49.358154614056
11	6253389	1920	50.945485592186
11	6410522	1940	50.335196042851
11	6568948	1960	51.763794457033
11	6730222	1980	50.397123439725
11	6894240	2000	50.025197705467
12	145950	240	1.2020519865176
12	171878	260	1.2033369300917
12	199027	280	0.40377013399857
12	226259	300	2.0036184249162
12	253532	320	1.9553586162554
12	280880	340	2.3526375760485
12	307990	360	1.0940903789608
12	335241	380	1.2046782036266
12	362668	400	1.4752636923894
12	390202	420	1.6985678669992
12	418767	440	1.7519141357251
12	447593	460	2.3694885788536
12	476863	480	2.9363506902087
12	507075	500	1.9148556209397