version 2
run statisticRVV-32-20150325-00:58:43-7448
attr c 9
attr configname statisticRVV
attr datetime 20150325-00:58:43
attr experiment statisticRVV
attr inifile omnetpp.ini
attr iterationvars "$sc=\"erlangen-low.launchd.xml\", $p=1/10, $c=9"
attr iterationvars2 "$sc=\"erlangen-low.launchd.xml\", $p=1/10, $c=9, $repetition=2"
attr measurement "$sc=\"erlangen-low.launchd.xml\", $p=1/10, $c=9"
attr network RSUExampleScenario
attr p 1/10
attr processid 7448
attr repetition 2
attr replication #2
attr resultdir results
attr runnumber 32
attr sc "\"erlangen-low.launchd.xml\""
attr seedset 32

vector 0  RSUExampleScenario.rsu[0].appl  Number_CH  ETV
vector 1  RSUExampleScenario.rsu[0].appl  Number_ON  ETV
vector 2  RSUExampleScenario.rsu[0].appl  Number_FN  ETV
vector 3  RSUExampleScenario.rsu[0].appl  Number_CH_Losts  ETV
vector 4  RSUExampleScenario.rsu[0].appl  Mean_Cluster_Size  ETV
vector 5  RSUExampleScenario.rsu[0].appl  StdDev_Cluster_Size  ETV
vector 6  RSUExampleScenario.rsu[0].appl  Variance_Cluster_Size  ETV
vector 7  RSUExampleScenario.rsu[0].appl  Mean_Neighbors  ETV
vector 8  RSUExampleScenario.rsu[0].appl  StdDev_Neighbors  ETV
vector 9  RSUExampleScenario.rsu[0].appl  Variance_Neighbors  ETV
vector 10  RSUExampleScenario.rsu[0].appl  Total_CH_Utility  ETV
vector 11  RSUExampleScenario.rsu[0].appl  Mean_CH_Utility  ETV
vector 12  RSUExampleScenario.rsu[0].appl  StdDev_CH_Utility  ETV
vector 13  RSUExampleScenario.rsu[0].appl  Variance_CH_Utility  ETV
vector 14  RSUExampleScenario.rsu[0].appl  Total_exp_CH_Utility  ETV
vector 15  RSUExampleScenario.rsu[0].appl  Mean_exp_CH_Utility  ETV
vector 16  RSUExampleScenario.rsu[0].appl  StdDev_exp_CH_Utility  ETV
vector 17  RSUExampleScenario.rsu[0].appl  Variance_exp_CH_Utility  ETV
vector 18  RSUExampleScenario.rsu[0].appl  Total_ON_Utility  ETV
vector 19  RSUExampleScenario.rsu[0].appl  Mean_ON_Utility  ETV
vector 20  RSUExampleScenario.rsu[0].appl  StdDev_ON_Utility  ETV
vector 21  RSUExampleScenario.rsu[0].appl  Variance_ON_Utility  ETV
vector 22  RSUExampleScenario.rsu[0].appl  Total_exp_ON_Utility  ETV
vector 23  RSUExampleScenario.rsu[0].appl  Mean_exp_ON_Utility  ETV
vector 24  RSUExampleScenario.rsu[0].appl  StdDev_exp_ON_Utility  ETV
vector 25  RSUExampleScenario.rsu[0].appl  Variance_exp_ON_Utility  ETV
0	34713	240	3
0	39987	260	3
0	45387	280	6
0	50649	300	4
0	56069	320	4
0	61417	340	2
0	66769	360	2
0	72072	380	1
0	77413	400	4
0	82712	420	1
0	88077	440	1
0	93333	460	0
0	98525	480	2
0	103819	500	1
0	109058	520	4
0	114322	540	4
0	119625	560	3
0	125018	580	6
0	130415	600	3
0	135779	620	2
0	141102	640	4
0	146361	660	2
0	151764	680	3
0	157145	700	3
0	162499	720	2
0	167889	740	10
0	173181	760	2
0	178580	780	4
0	183878	800	2
0	189150	820	2
0	194444	840	4
0	199760	860	2
0	205042	880	5
0	210276	900	0
0	215578	920	4
0	220950	940	5
0	226256	960	3
0	231595	980	3
0	236890	1000	6
0	242222	1020	2
0	247575	1040	1
0	252837	1060	2
0	258247	1080	1
0	263661	1100	3
0	269053	1120	4
0	274433	1140	2
0	279790	1160	3
0	285189	1180	2
0	290453	1200	2
0	295809	1220	3
0	301073	1240	4
0	306373	1260	4
0	311623	1280	4
0	316935	1300	3
0	322089	1320	3
0	327325	1340	0
0	332604	1360	1
0	337896	1380	4
0	343216	1400	4
0	348528	1420	2
0	353821	1440	4
0	359136	1460	3
0	364441	1480	5
0	369750	1500	3
0	375068	1520	2
0	380474	1540	5
0	385891	1560	4
0	391281	1580	0
0	396597	1600	5
0	401918	1620	5
0	407296	1640	1
0	412528	1660	2
0	417781	1680	2
0	423091	1700	0
0	428395	1720	5
0	433744	1740	2
0	439036	1760	2
0	444245	1780	4
0	449550	1800	1
0	454434	1820	5
0	458719	1840	3
0	462518	1860	3
0	465855	1880	4
0	468757	1900	0
0	471286	1920	0
0	473239	1940	2
0	474766	1960	2
0	475866	1980	1
0	476479	2000	0
1	34713	240	3
1	39987	260	4
1	45387	280	8
1	50649	300	5
1	56069	320	7
1	61417	340	3
1	66769	360	4
1	72072	380	2
1	77413	400	4
1	82712	420	2
1	88077	440	1
1	93333	460	0
1	98525	480	2
1	103819	500	1
1	109058	520	5
1	114322	540	7
1	119625	560	4
1	125018	580	7
1	130415	600	4
1	135779	620	2
1	141102	640	4
1	146361	660	2
1	151764	680	3
1	157145	700	4
1	162499	720	2
1	167889	740	11
1	173181	760	3
1	178580	780	5
1	183878	800	4
1	189150	820	4
1	194444	840	5
1	199760	860	3
1	205042	880	6
1	210276	900	0
1	215578	920	6
1	220950	940	6
1	226256	960	4
1	231595	980	5
1	236890	1000	8
1	242222	1020	3
1	247575	1040	1
1	252837	1060	2
1	258247	1080	1
1	263661	1100	5
1	269053	1120	6
1	274433	1140	2
1	279790	1160	3
1	285189	1180	2
1	290453	1200	2
1	295809	1220	3
1	301073	1240	6
1	306373	1260	5
1	311623	1280	8
1	316935	1300	4
1	322089	1320	4
1	327325	1340	0
1	332604	1360	2
1	337896	1380	5
1	343216	1400	4
1	348528	1420	2
1	353821	1440	5
1	359136	1460	4
1	364441	1480	8
1	369750	1500	7
1	375068	1520	3
1	380474	1540	8
1	385891	1560	6
1	391281	1580	0
1	396597	1600	5
1	401918	1620	7
1	407296	1640	1
1	412528	1660	3
1	417781	1680	3
1	423091	1700	0
1	428395	1720	7
1	433744	1740	3
1	439036	1760	3
1	444245	1780	5
1	449550	1800	1
1	454434	1820	9
1	458719	1840	3
1	462518	1860	3
1	465855	1880	5
1	468757	1900	0
1	471286	1920	0
1	473239	1940	2
1	474766	1960	2
1	475866	1980	1
1	476479	2000	0
2	34713	240	33
2	39987	260	34
2	45387	280	28
2	50649	300	31
2	56069	320	30
2	61417	340	36
2	66769	360	35
2	72072	380	37
2	77413	400	33
2	82712	420	37
2	88077	440	38
2	93333	460	40
2	98525	480	35
2	103819	500	38
2	109058	520	31
2	114322	540	28
2	119625	560	33
2	125018	580	28
2	130415	600	33
2	135779	620	37
2	141102	640	34
2	146361	660	35
2	151764	680	35
2	157145	700	34
2	162499	720	37
2	167889	740	19
2	173181	760	35
2	178580	780	32
2	183878	800	33
2	189150	820	34
2	194444	840	32
2	199760	860	36
2	205042	880	29
2	210276	900	40
2	215578	920	30
2	220950	940	31
2	226256	960	33
2	231595	980	32
2	236890	1000	26
2	242222	1020	35
2	247575	1040	38
2	252837	1060	35
2	258247	1080	39
2	263661	1100	34
2	269053	1120	30
2	274433	1140	37
2	279790	1160	35
2	285189	1180	37
2	290453	1200	35
2	295809	1220	33
2	301073	1240	30
2	306373	1260	31
2	311623	1280	29
2	316935	1300	33
2	322089	1320	33
2	327325	1340	41
2	332604	1360	38
2	337896	1380	31
2	343216	1400	32
2	348528	1420	36
2	353821	1440	31
2	359136	1460	33
2	364441	1480	28
2	369750	1500	30
2	375068	1520	35
2	380474	1540	27
2	385891	1560	31
2	391281	1580	42
2	396597	1600	30
2	401918	1620	28
2	407296	1640	39
2	412528	1660	34
2	417781	1680	35
2	423091	1700	41
2	428395	1720	28
2	433744	1740	36
2	439036	1760	35
2	444245	1780	31
2	449550	1800	39
2	454434	1820	23
2	458719	1840	28
2	462518	1860	25
2	465855	1880	19
2	468757	1900	24
2	471286	1920	21
2	473239	1940	13
2	474766	1960	9
2	475866	1980	9
2	476479	2000	8
3	34713	240	0
3	39987	260	0
3	45387	280	0
3	50649	300	2
3	56069	320	1
3	61417	340	2
3	66769	360	1
3	72072	380	1
3	77413	400	3
3	82712	420	0
3	88077	440	2
3	93333	460	1
3	98525	480	1
3	103819	500	0
3	109058	520	0
3	114322	540	0
3	119625	560	1
3	125018	580	0
3	130415	600	0
3	135779	620	1
3	141102	640	6
3	146361	660	0
3	151764	680	1
3	157145	700	0
3	162499	720	0
3	167889	740	3
3	173181	760	1
3	178580	780	1
3	183878	800	0
3	189150	820	4
3	194444	840	1
3	199760	860	1
3	205042	880	1
3	210276	900	4
3	215578	920	1
3	220950	940	2
3	226256	960	1
3	231595	980	1
3	236890	1000	0
3	242222	1020	0
3	247575	1040	0
3	252837	1060	0
3	258247	1080	0
3	263661	1100	1
3	269053	1120	1
3	274433	1140	2
3	279790	1160	4
3	285189	1180	2
3	290453	1200	1
3	295809	1220	0
3	301073	1240	1
3	306373	1260	2
3	311623	1280	0
3	316935	1300	0
3	322089	1320	1
3	327325	1340	2
3	332604	1360	0
3	337896	1380	4
3	343216	1400	1
3	348528	1420	0
3	353821	1440	0
3	359136	1460	1
3	364441	1480	0
3	369750	1500	2
3	375068	1520	3
3	380474	1540	2
3	385891	1560	4
3	391281	1580	2
3	396597	1600	0
3	401918	1620	1
3	407296	1640	0
3	412528	1660	2
3	417781	1680	1
3	423091	1700	0
3	428395	1720	1
3	433744	1740	1
3	439036	1760	1
3	444245	1780	3
3	449550	1800	2
3	454434	1820	1
3	458719	1840	0
3	462518	1860	1
3	465855	1880	0
3	468757	1900	0
3	471286	1920	0
3	473239	1940	1
3	474766	1960	1
3	475866	1980	1
3	476479	2000	0
4	34713	240	1
4	39987	260	1.3333333333333
4	45387	280	1.3333333333333
4	50649	300	1.25
4	56069	320	1.75
4	61417	340	1.5
4	66769	360	2
4	72072	380	2
4	77413	400	1
4	82712	420	2
4	88077	440	1
4	93333	460	nan
4	98525	480	1
4	103819	500	1
4	109058	520	1.25
4	114322	540	1.75
4	119625	560	1.3333333333333
4	125018	580	1.1666666666667
4	130415	600	1.3333333333333
4	135779	620	1
4	141102	640	1
4	146361	660	1
4	151764	680	1
4	157145	700	1.3333333333333
4	162499	720	1
4	167889	740	1.1
4	173181	760	1.5
4	178580	780	1.25
4	183878	800	2
4	189150	820	2
4	194444	840	1.25
4	199760	860	1.5
4	205042	880	1.2
4	210276	900	nan
4	215578	920	1.5
4	220950	940	1.2
4	226256	960	1.3333333333333
4	231595	980	1.6666666666667
4	236890	1000	1.3333333333333
4	242222	1020	1.5
4	247575	1040	1
4	252837	1060	1
4	258247	1080	1
4	263661	1100	1.6666666666667
4	269053	1120	1.5
4	274433	1140	1
4	279790	1160	1
4	285189	1180	1
4	290453	1200	1
4	295809	1220	1
4	301073	1240	1.5
4	306373	1260	1.25
4	311623	1280	2
4	316935	1300	1.3333333333333
4	322089	1320	1.3333333333333
4	327325	1340	nan
4	332604	1360	2
4	337896	1380	1.25
4	343216	1400	1
4	348528	1420	1
4	353821	1440	1.25
4	359136	1460	1.3333333333333
4	364441	1480	1.6
4	369750	1500	2.3333333333333
4	375068	1520	1.5
4	380474	1540	1.6
4	385891	1560	1.5
4	391281	1580	nan
4	396597	1600	1
4	401918	1620	1.4
4	407296	1640	1
4	412528	1660	1.5
4	417781	1680	1.5
4	423091	1700	nan
4	428395	1720	1.4
4	433744	1740	1.5
4	439036	1760	1.5
4	444245	1780	1.25
4	449550	1800	1
4	454434	1820	1.8
4	458719	1840	1
4	462518	1860	1
4	465855	1880	1.25
4	468757	1900	nan
4	471286	1920	nan
4	473239	1940	1
4	474766	1960	1
4	475866	1980	1
4	476479	2000	nan
5	34713	240	0
5	39987	260	0.57735026918963
5	45387	280	0.51639777949432
5	50649	300	0.5
5	56069	320	0.5
5	61417	340	0.70710678118655
5	66769	360	0
5	72072	380	nan
5	77413	400	0
5	82712	420	nan
5	88077	440	nan
5	93333	460	nan
5	98525	480	0
5	103819	500	nan
5	109058	520	0.5
5	114322	540	0.5
5	119625	560	0.57735026918963
5	125018	580	0.40824829046386
5	130415	600	0.57735026918963
5	135779	620	0
5	141102	640	0
5	146361	660	0
5	151764	680	0
5	157145	700	0.57735026918963
5	162499	720	0
5	167889	740	0.31622776601684
5	173181	760	0.70710678118655
5	178580	780	0.5
5	183878	800	0
5	189150	820	0
5	194444	840	0.5
5	199760	860	0.70710678118655
5	205042	880	0.44721359549996
5	210276	900	nan
5	215578	920	0.57735026918963
5	220950	940	0.44721359549996
5	226256	960	0.57735026918963
5	231595	980	0.57735026918963
5	236890	1000	0.51639777949432
5	242222	1020	0.70710678118655
5	247575	1040	nan
5	252837	1060	0
5	258247	1080	nan
5	263661	1100	0.57735026918963
5	269053	1120	0.57735026918963
5	274433	1140	0
5	279790	1160	0
5	285189	1180	0
5	290453	1200	0
5	295809	1220	0
5	301073	1240	0.57735026918963
5	306373	1260	0.5
5	311623	1280	0
5	316935	1300	0.57735026918963
5	322089	1320	0.57735026918963
5	327325	1340	nan
5	332604	1360	nan
5	337896	1380	0.5
5	343216	1400	0
5	348528	1420	0
5	353821	1440	0.5
5	359136	1460	0.57735026918963
5	364441	1480	0.54772255750517
5	369750	1500	0.57735026918963
5	375068	1520	0.70710678118655
5	380474	1540	0.54772255750517
5	385891	1560	0.57735026918963
5	391281	1580	nan
5	396597	1600	0
5	401918	1620	0.54772255750517
5	407296	1640	nan
5	412528	1660	0.70710678118655
5	417781	1680	0.70710678118655
5	423091	1700	nan
5	428395	1720	0.54772255750517
5	433744	1740	0.70710678118655
5	439036	1760	0.70710678118655
5	444245	1780	0.5
5	449550	1800	nan
5	454434	1820	0.44721359549996
5	458719	1840	0
5	462518	1860	0
5	465855	1880	0.5
5	468757	1900	nan
5	471286	1920	nan
5	473239	1940	0
5	474766	1960	0
5	475866	1980	nan
5	476479	2000	nan
6	34713	240	0
6	39987	260	0.33333333333333
6	45387	280	0.26666666666667
6	50649	300	0.25
6	56069	320	0.25
6	61417	340	0.5
6	66769	360	0
6	72072	380	nan
6	77413	400	0
6	82712	420	nan
6	88077	440	nan
6	93333	460	nan
6	98525	480	0
6	103819	500	nan
6	109058	520	0.25
6	114322	540	0.25
6	119625	560	0.33333333333333
6	125018	580	0.16666666666667
6	130415	600	0.33333333333333
6	135779	620	0
6	141102	640	0
6	146361	660	0
6	151764	680	0
6	157145	700	0.33333333333333
6	162499	720	0
6	167889	740	0.1
6	173181	760	0.5
6	178580	780	0.25
6	183878	800	0
6	189150	820	0
6	194444	840	0.25
6	199760	860	0.5
6	205042	880	0.2
6	210276	900	nan
6	215578	920	0.33333333333333
6	220950	940	0.2
6	226256	960	0.33333333333333
6	231595	980	0.33333333333333
6	236890	1000	0.26666666666667
6	242222	1020	0.5
6	247575	1040	nan
6	252837	1060	0
6	258247	1080	nan
6	263661	1100	0.33333333333333
6	269053	1120	0.33333333333333
6	274433	1140	0
6	279790	1160	0
6	285189	1180	0
6	290453	1200	0
6	295809	1220	0
6	301073	1240	0.33333333333333
6	306373	1260	0.25
6	311623	1280	0
6	316935	1300	0.33333333333333
6	322089	1320	0.33333333333333
6	327325	1340	nan
6	332604	1360	nan
6	337896	1380	0.25
6	343216	1400	0
6	348528	1420	0
6	353821	1440	0.25
6	359136	1460	0.33333333333333
6	364441	1480	0.3
6	369750	1500	0.33333333333333
6	375068	1520	0.5
6	380474	1540	0.3
6	385891	1560	0.33333333333333
6	391281	1580	nan
6	396597	1600	0
6	401918	1620	0.3
6	407296	1640	nan
6	412528	1660	0.5
6	417781	1680	0.5
6	423091	1700	nan
6	428395	1720	0.3
6	433744	1740	0.5
6	439036	1760	0.5
6	444245	1780	0.25
6	449550	1800	nan
6	454434	1820	0.2
6	458719	1840	0
6	462518	1860	0
6	465855	1880	0.25
6	468757	1900	nan
6	471286	1920	nan
6	473239	1940	0
6	474766	1960	0
6	475866	1980	nan
6	476479	2000	nan
7	34713	240	8.9487179487179
7	39987	260	8.7317073170732
7	45387	280	9.0975609756098
7	50649	300	9.1
7	56069	320	8.9512195121951
7	61417	340	9.05
7	66769	360	9.15
7	72072	380	8.825
7	77413	400	8.7560975609756
7	82712	420	8.85
7	88077	440	9.125
7	93333	460	8.8974358974359
7	98525	480	8.9230769230769
7	103819	500	8.95
7	109058	520	9.025
7	114322	540	9.0769230769231
7	119625	560	9.0512820512821
7	125018	580	9.1463414634146
7	130415	600	9.025
7	135779	620	9.2307692307692
7	141102	640	8.5952380952381
7	146361	660	9.1025641025641
7	151764	680	8.9756097560976
7	157145	700	8.8048780487805
7	162499	720	9.0487804878049
7	167889	740	9.075
7	173181	760	9.1025641025641
7	178580	780	8.8536585365854
7	183878	800	9.2051282051282
7	189150	820	9.075
7	194444	840	8.7073170731707
7	199760	860	8.8292682926829
7	205042	880	9
7	210276	900	8.65
7	215578	920	9
7	220950	940	8.9285714285714
7	226256	960	9.15
7	231595	980	8.85
7	236890	1000	8.975
7	242222	1020	9.15
7	247575	1040	9.075
7	252837	1060	9
7	258247	1080	8.7560975609756
7	263661	1100	8.8809523809524
7	269053	1120	9.2820512820513
7	274433	1140	9.0975609756098
7	279790	1160	9.1538461538462
7	285189	1180	8.9756097560976
7	290453	1200	9.0769230769231
7	295809	1220	9.1282051282051
7	301073	1240	8.85
7	306373	1260	9
7	311623	1280	8.9512195121951
7	316935	1300	8.925
7	322089	1320	8.925
7	327325	1340	8.8780487804878
7	332604	1360	8.875
7	337896	1380	9.25
7	343216	1400	9.1
7	348528	1420	9.025
7	353821	1440	9
7	359136	1460	8.875
7	364441	1480	9.05
7	369750	1500	9
7	375068	1520	9.275
7	380474	1540	8.95
7	385891	1560	8.6829268292683
7	391281	1580	8.9756097560976
7	396597	1600	9.1
7	401918	1620	9.1794871794872
7	407296	1640	8.9756097560976
7	412528	1660	8.8717948717949
7	417781	1680	8.825
7	423091	1700	9.075
7	428395	1720	8.95
7	433744	1740	9.05
7	439036	1760	8.975
7	444245	1780	8.775
7	449550	1800	8.7560975609756
7	454434	1820	8.7297297297297
7	458719	1840	8.5588235294118
7	462518	1860	8.3870967741935
7	465855	1880	7.9285714285714
7	468757	1900	7.9583333333333
7	471286	1920	8.0952380952381
7	473239	1940	7.5294117647059
7	474766	1960	7.0769230769231
7	475866	1980	6.6363636363636
7	476479	2000	5.75
8	34713	240	1.3755136447068
8	39987	260	1.7610279703046
8	45387	280	1.6853023178169
8	50649	300	1.481509971236
8	56069	320	1.9868469935075
8	61417	340	1.7089507952287
8	66769	360	1.8749358963401
8	72072	380	2.1942523988237
8	77413	400	2.0830324986048
8	82712	420	1.9683391410931
8	88077	440	1.9895560643856
8	93333	460	1.7289313979095
8	98525	480	1.9383201542168
8	103819	500	1.8109354432136
8	109058	520	2.0815120243929
8	114322	540	1.5957940670567
8	119625	560	1.7762870493002
8	125018	580	1.8242940498965
8	130415	600	1.6561849890482
8	135779	620	1.9528863720622
8	141102	640	1.7814699850914
8	146361	660	1.6669365503486
8	151764	680	2.0185118884719
8	157145	700	1.6312497079712
8	162499	720	1.7741366845905
8	167889	740	1.7155024680684
8	173181	760	1.5693591014181
8	178580	780	2.068344454023
8	183878	800	1.2178386199261
8	189150	820	2.1290120496823
8	194444	840	1.6769600835891
8	199760	860	2.1552544980163
8	205042	880	1.8257418583506
8	210276	900	2.2366412547756
8	215578	920	1.6641005886757
8	220950	940	1.9679487543256
8	226256	960	1.4771767944465
8	231595	980	1.6878145480822
8	236890	1000	1.9146868258349
8	242222	1020	1.2516655570346
8	247575	1040	1.6233472857822
8	252837	1060	1.6274669424135
8	258247	1080	1.8812294889896
8	263661	1100	2.1322423894654
8	269053	1120	1.5551056479379
8	274433	1140	2.0100357963079
8	279790	1160	1.8142485981002
8	285189	1180	1.8095276300467
8	290453	1200	1.2852322211757
8	295809	1220	1.3988620785159
8	301073	1240	1.9020906177017
8	306373	1260	1.8673991236957
8	311623	1280	1.4824172744574
8	316935	1300	1.6546360665779
8	322089	1320	1.9399643137083
8	327325	1340	1.8600419612366
8	332604	1360	1.7421987286921
8	337896	1380	1.5972733176517
8	343216	1400	1.836942833721
8	348528	1420	2.0189804484645
8	353821	1440	1.5021352323976
8	359136	1460	1.8001068344364
8	364441	1480	1.9208705291465
8	369750	1500	1.1547005383793
8	375068	1520	1.2192368357044
8	380474	1540	2.0121426263359
8	385891	1560	1.8633172621731
8	391281	1580	2.1504395466747
8	396597	1600	1.9974342516698
8	401918	1620	1.2746887106434
8	407296	1640	1.619996988856
8	412528	1660	1.8235230098196
8	417781	1680	1.9465617288189
8	423091	1700	1.8029534174906
8	428395	1720	1.431334324579
8	433744	1740	1.3765434228065
8	439036	1760	1.8043750249794
8	444245	1780	1.9805140487853
8	449550	1800	2.0588891155776
8	454434	1820	1.4653146921898
8	458719	1840	1.5411757902327
8	462518	1860	1.5422368896042
8	465855	1880	1.6761634196951
8	468757	1900	1.7564580631305
8	471286	1920	1.6704718466578
8	473239	1940	1.6627404735415
8	474766	1960	1.8466879569262
8	475866	1980	1.1200649331827
8	476479	2000	1.5811388300842
9	34713	240	1.8920377867746
9	39987	260	3.1012195121951
9	45387	280	2.840243902439
9	50649	300	2.1948717948718
9	56069	320	3.9475609756098
9	61417	340	2.9205128205128
9	66769	360	3.5153846153846
9	72072	380	4.8147435897436
9	77413	400	4.3390243902439
9	82712	420	3.874358974359
9	88077	440	3.9583333333333
9	93333	460	2.9892037786775
9	98525	480	3.7570850202429
9	103819	500	3.2794871794872
9	109058	520	4.3326923076923
9	114322	540	2.5465587044534
9	119625	560	3.1551956815115
9	125018	580	3.3280487804878
9	130415	600	2.7429487179487
9	135779	620	3.8137651821862
9	141102	640	3.1736353077816
9	146361	660	2.778677462888
9	151764	680	4.0743902439024
9	157145	700	2.6609756097561
9	162499	720	3.1475609756098
9	167889	740	2.9429487179487
9	173181	760	2.4628879892038
9	178580	780	4.2780487804878
9	183878	800	1.4831309041835
9	189150	820	4.5326923076923
9	194444	840	2.8121951219512
9	199760	860	4.6451219512195
9	205042	880	3.3333333333333
9	210276	900	5.0025641025641
9	215578	920	2.7692307692308
9	220950	940	3.8728222996516
9	226256	960	2.1820512820513
9	231595	980	2.8487179487179
9	236890	1000	3.6660256410256
9	242222	1020	1.5666666666667
9	247575	1040	2.6352564102564
9	252837	1060	2.6486486486486
9	258247	1080	3.5390243902439
9	263661	1100	4.5464576074332
9	269053	1120	2.4183535762483
9	274433	1140	4.040243902439
9	279790	1160	3.2914979757085
9	285189	1180	3.2743902439024
9	290453	1200	1.6518218623482
9	295809	1220	1.9568151147099
9	301073	1240	3.6179487179487
9	306373	1260	3.4871794871795
9	311623	1280	2.1975609756098
9	316935	1300	2.7378205128205
9	322089	1320	3.7634615384615
9	327325	1340	3.459756097561
9	332604	1360	3.0352564102564
9	337896	1380	2.5512820512821
9	343216	1400	3.374358974359
9	348528	1420	4.0762820512821
9	353821	1440	2.2564102564103
9	359136	1460	3.2403846153846
9	364441	1480	3.6897435897436
9	369750	1500	1.3333333333333
9	375068	1520	1.4865384615385
9	380474	1540	4.0487179487179
9	385891	1560	3.4719512195122
9	391281	1580	4.6243902439024
9	396597	1600	3.9897435897436
9	401918	1620	1.6248313090418
9	407296	1640	2.6243902439024
9	412528	1660	3.3252361673414
9	417781	1680	3.7891025641026
9	423091	1700	3.250641025641
9	428395	1720	2.0487179487179
9	433744	1740	1.8948717948718
9	439036	1760	3.2557692307692
9	444245	1780	3.9224358974359
9	449550	1800	4.2390243902439
9	454434	1820	2.1471471471471
9	458719	1840	2.3752228163993
9	462518	1860	2.3784946236559
9	465855	1880	2.8095238095238
9	468757	1900	3.0851449275362
9	471286	1920	2.7904761904762
9	473239	1940	2.7647058823529
9	474766	1960	3.4102564102564
9	475866	1980	1.2545454545455
9	476479	2000	2.5
10	34713	240	139.74430334917
10	39987	260	139.32355079155
10	45387	280	277.22477673231
10	50649	300	190.71005841641
10	56069	320	187.52128953049
10	61417	340	91.807371468769
10	66769	360	93.249640506531
10	72072	380	48.525431214453
10	77413	400	185.69904952101
10	82712	420	45.865691903613
10	88077	440	44.817079071175
10	93333	460	0
10	98525	480	92.449404144727
10	103819	500	46.682772677558
10	109058	520	184.97694576301
10	114322	540	185.48990098226
10	119625	560	143.3008259594
10	125018	580	281.22447605174
10	130415	600	143.92840870636
10	135779	620	95.416148042993
10	141102	640	188.38681846704
10	146361	660	96.971432131254
10	151764	680	131.68085096565
10	157145	700	139.25708428776
10	162499	720	99.695392971214
10	167889	740	478.97040768689
10	173181	760	97.183348122847
10	178580	780	196.90704347168
10	183878	800	96.98577843161
10	189150	820	95.570705563786
10	194444	840	182.43246976332
10	199760	860	94.946518354211
10	205042	880	235.07318069702
10	210276	900	0
10	215578	920	189.6970554304
10	220950	940	234.84308024832
10	226256	960	140.06860491215
10	231595	980	137.80429077296
10	236890	1000	279.11512009203
10	242222	1020	91.824815189964
10	247575	1040	44.316091503822
10	252837	1060	92.802620598659
10	258247	1080	47.658197917585
10	263661	1100	140.37781384889
10	269053	1120	189.01119962607
10	274433	1140	95.138422492788
10	279790	1160	140.09735859
10	285189	1180	90.617963114103
10	290453	1200	95.226669885884
10	295809	1220	142.10691677827
10	301073	1240	188.08779010875
10	306373	1260	186.24065121382
10	311623	1280	191.09106864274
10	316935	1300	139.6844429146
10	322089	1320	141.5934911957
10	327325	1340	0
10	332604	1360	47.606046361633
10	337896	1380	190.39852796289
10	343216	1400	182.31515424893
10	348528	1420	91.765237819609
10	353821	1440	187.99555339087
10	359136	1460	140.822686372
10	364441	1480	231.25447512476
10	369750	1500	140.80680842556
10	375068	1520	94.570639997874
10	380474	1540	232.56762680542
10	385891	1560	184.95937798752
10	391281	1580	0
10	396597	1600	235.97082238481
10	401918	1620	229.80388310059
10	407296	1640	47.551234031996
10	412528	1660	92.507545202706
10	417781	1680	91.551019232906
10	423091	1700	0
10	428395	1720	233.39567604736
10	433744	1740	93.083289740289
10	439036	1760	95.43221659183
10	444245	1780	182.84077550173
10	449550	1800	46.442286038633
10	454434	1820	230.33390869191
10	458719	1840	137.06142265999
10	462518	1860	139.5822702165
10	465855	1880	188.88150360751
10	468757	1900	0
10	471286	1920	0
10	473239	1940	98.907625894657
10	474766	1960	94.651427107504
10	475866	1980	51.748947752418
10	476479	2000	0
11	34713	240	46.581434449723
11	39987	260	46.441183597182
11	45387	280	46.204129455385
11	50649	300	47.677514604102
11	56069	320	46.880322382623
11	61417	340	45.903685734384
11	66769	360	46.624820253265
11	72072	380	48.525431214453
11	77413	400	46.424762380253
11	82712	420	45.865691903613
11	88077	440	44.817079071175
11	93333	460	nan
11	98525	480	46.224702072364
11	103819	500	46.682772677558
11	109058	520	46.244236440752
11	114322	540	46.372475245565
11	119625	560	47.766941986466
11	125018	580	46.870746008623
11	130415	600	47.976136235455
11	135779	620	47.708074021496
11	141102	640	47.096704616759
11	146361	660	48.485716065627
11	151764	680	43.893616988549
11	157145	700	46.419028095921
11	162499	720	49.847696485607
11	167889	740	47.897040768689
11	173181	760	48.591674061424
11	178580	780	49.226760867921
11	183878	800	48.492889215805
11	189150	820	47.785352781893
11	194444	840	45.608117440829
11	199760	860	47.473259177106
11	205042	880	47.014636139403
11	210276	900	nan
11	215578	920	47.4242638576
11	220950	940	46.968616049663
11	226256	960	46.689534970718
11	231595	980	45.934763590988
11	236890	1000	46.519186682005
11	242222	1020	45.912407594982
11	247575	1040	44.316091503822
11	252837	1060	46.401310299329
11	258247	1080	47.658197917585
11	263661	1100	46.792604616297
11	269053	1120	47.252799906517
11	274433	1140	47.569211246394
11	279790	1160	46.699119529999
11	285189	1180	45.308981557052
11	290453	1200	47.613334942942
11	295809	1220	47.368972259424
11	301073	1240	47.021947527188
11	306373	1260	46.560162803455
11	311623	1280	47.772767160685
11	316935	1300	46.561480971535
11	322089	1320	47.197830398568
11	327325	1340	nan
11	332604	1360	47.606046361633
11	337896	1380	47.599631990722
11	343216	1400	45.578788562233
11	348528	1420	45.882618909804
11	353821	1440	46.998888347718
11	359136	1460	46.940895457334
11	364441	1480	46.250895024952
11	369750	1500	46.935602808518
11	375068	1520	47.285319998937
11	380474	1540	46.513525361084
11	385891	1560	46.239844496881
11	391281	1580	nan
11	396597	1600	47.194164476961
11	401918	1620	45.960776620118
11	407296	1640	47.551234031996
11	412528	1660	46.253772601353
11	417781	1680	45.775509616453
11	423091	1700	nan
11	428395	1720	46.679135209471
11	433744	1740	46.541644870144
11	439036	1760	47.716108295915
11	444245	1780	45.710193875433
11	449550	1800	46.442286038633
11	454434	1820	46.066781738381
11	458719	1840	45.687140886664
11	462518	1860	46.527423405501
11	465855	1880	47.220375901877
11	468757	1900	nan
11	471286	1920	nan
11	473239	1940	49.453812947328
11	474766	1960	47.325713553752
11	475866	1980	51.748947752418
11	476479	2000	nan
12	34713	240	1.1469634860657
12	39987	260	0.77416916239429
12	45387	280	1.6929073060421
12	50649	300	2.7692807416772
12	56069	320	1.8756798062158
12	61417	340	0.12830992360525
12	66769	360	0.87859054674192
12	72072	380	nan
12	77413	400	2.1317182372872
12	82712	420	nan
12	88077	440	nan
12	93333	460	nan
12	98525	480	0.70023868513541
12	103819	500	nan
12	109058	520	0.70210271997967
12	114322	540	0.76266861860284
12	119625	560	0.44828386590834
12	125018	580	1.0743274789636
12	130415	600	0.63241304293632
12	135779	620	1.9313689250221
12	141102	640	1.3205850174026
12	146361	660	0.25691186158709
12	151764	680	2.8854024639183
12	157145	700	1.5025462248344
12	162499	720	0.87338766907846
12	167889	740	2.6784307337599
12	173181	760	1.2524850412291
12	178580	780	2.5180812876599
12	183878	800	0.051345725069134
12	189150	820	1.4991557267564
12	194444	840	1.2372241428421
12	199760	860	1.3824689085345
12	205042	880	1.8391300255535
12	210276	900	nan
12	215578	920	1.6485241454162
12	220950	940	1.8295727946487
12	226256	960	1.2063779672524
12	231595	980	0.89188248163895
12	236890	1000	2.0996792394291
12	242222	1020	0.32362906207789
12	247575	1040	nan
12	252837	1060	1.7324659665921
12	258247	1080	nan
12	263661	1100	0.87994441514483
12	269053	1120	1.8638910268353
12	274433	1140	2.0404283181629
12	279790	1160	1.2216795578834
12	285189	1180	0.007740441599199
12	290453	1200	2.3215510832612
12	295809	1220	1.955931609904
12	301073	1240	1.7631735996949
12	306373	1260	4.397644329002
12	311623	1280	0.87527566859594
12	316935	1300	0.43343320894473
12	322089	1320	3.0343709690706
12	327325	1340	nan
12	332604	1360	nan
12	337896	1380	2.6578654882805
12	343216	1400	0.97039690628432
12	348528	1420	0.2176432186707
12	353821	1440	1.3278511619056
12	359136	1460	0.78027626825754
12	364441	1480	0.72631676401228
12	369750	1500	1.8000285491736
12	375068	1520	0.94192144381881
12	380474	1540	1.4500669171082
12	385891	1560	0.32819240588461
12	391281	1580	nan
12	396597	1600	1.470021086056
12	401918	1620	1.3951803814378
12	407296	1640	nan
12	412528	1660	1.4630734016798
12	417781	1680	0.042401121224488
12	423091	1700	nan
12	428395	1720	2.6085257580693
12	433744	1740	1.3757881231223
12	439036	1760	0.28654130910558
12	444245	1780	0.57104550495113
12	449550	1800	nan
12	454434	1820	1.4749803902295
12	458719	1840	0.40789163162845
12	462518	1860	2.0052709147994
12	465855	1880	1.1582161738267
12	468757	1900	nan
12	471286	1920	nan
12	473239	1940	4.3878137550973
12	474766	1960	1.8747639106499
12	475866	1980	nan
12	476479	2000	nan
13	34713	240	1.315525238368
13	39987	260	0.59933789200227
13	45387	280	2.8659351468509
13	50649	300	7.668915826224
13	56069	320	3.5181747354457
13	61417	340	0.016463436495585
13	66769	360	0.77192134882427
13	72072	380	nan
13	77413	400	4.544222643183
13	82712	420	nan
13	88077	440	nan
13	93333	460	nan
13	98525	480	0.49033421616017
13	103819	500	nan
13	109058	520	0.49294822940285
13	114322	540	0.58166342180156
13	119625	560	0.20095842443372
13	125018	580	1.1541795320564
13	130415	600	0.39994625687597
13	135779	620	3.7301859245409
13	141102	640	1.7439447881881
13	146361	660	0.066003704624142
13	151764	680	8.3255473787857
13	157145	700	2.2576451577642
13	162499	720	0.76280602049831
13	167889	740	7.1739911955494
13	173181	760	1.5687187785027
13	178580	780	6.3407333712631
13	183878	800	0.0026363834828751
13	189150	820	2.2474678930666
13	194444	840	1.5307235796315
13	199760	860	1.9112202830647
13	205042	880	3.3823992508924
13	210276	900	nan
13	215578	920	2.7176318580203
13	220950	940	3.3473366109186
13	226256	960	1.455347799872
13	231595	980	0.79545436105446
13	236890	1000	4.4086529084896
13	242222	1020	0.10473576982142
13	247575	1040	nan
13	252837	1060	3.0014383254
13	258247	1080	nan
13	263661	1100	0.77430217374457
13	269053	1120	3.4740897599172
13	274433	1140	4.163347721561
13	279790	1160	1.4925009421501
13	285189	1180	5.991443615061e-005
13	290453	1200	5.3895994321913
13	295809	1220	3.8256684626216
13	301073	1240	3.1087811426609
13	306373	1260	19.339275644403
13	311623	1280	0.76610749603607
13	316935	1300	0.18786434661613
13	322089	1320	9.2074071779384
13	327325	1340	nan
13	332604	1360	nan
13	337896	1380	7.0642489537928