version 2
run statisticRVV-125-20150325-12:11:15-24464
attr c 14
attr configname statisticRVV
attr datetime 20150325-12:11:15
attr experiment statisticRVV
attr inifile omnetpp.ini
attr iterationvars "$sc=\"erlangen-medium.launchd.xml\", $p=1/15, $c=14"
attr iterationvars2 "$sc=\"erlangen-medium.launchd.xml\", $p=1/15, $c=14, $repetition=5"
attr measurement "$sc=\"erlangen-medium.launchd.xml\", $p=1/15, $c=14"
attr network RSUExampleScenario
attr p 1/15
attr processid 24464
attr repetition 5
attr replication #5
attr resultdir results
attr runnumber 125
attr sc "\"erlangen-medium.launchd.xml\""
attr seedset 125

vector 0  RSUExampleScenario.rsu[0].appl  Number_CH  ETV
vector 1  RSUExampleScenario.rsu[0].appl  Number_ON  ETV
vector 2  RSUExampleScenario.rsu[0].appl  Number_FN  ETV
vector 3  RSUExampleScenario.rsu[0].appl  Number_CH_Losts  ETV
vector 4  RSUExampleScenario.rsu[0].appl  Mean_Cluster_Size  ETV
vector 5  RSUExampleScenario.rsu[0].appl  StdDev_Cluster_Size  ETV
vector 6  RSUExampleScenario.rsu[0].appl  Variance_Cluster_Size  ETV
vector 7  RSUExampleScenario.rsu[0].appl  Mean_Neighbors  ETV
vector 8  RSUExampleScenario.rsu[0].appl  StdDev_Neighbors  ETV
vector 9  RSUExampleScenario.rsu[0].appl  Variance_Neighbors  ETV
vector 10  RSUExampleScenario.rsu[0].appl  Total_CH_Utility  ETV
vector 11  RSUExampleScenario.rsu[0].appl  Mean_CH_Utility  ETV
vector 12  RSUExampleScenario.rsu[0].appl  StdDev_CH_Utility  ETV
vector 13  RSUExampleScenario.rsu[0].appl  Variance_CH_Utility  ETV
vector 14  RSUExampleScenario.rsu[0].appl  Total_exp_CH_Utility  ETV
vector 15  RSUExampleScenario.rsu[0].appl  Mean_exp_CH_Utility  ETV
vector 16  RSUExampleScenario.rsu[0].appl  StdDev_exp_CH_Utility  ETV
vector 17  RSUExampleScenario.rsu[0].appl  Variance_exp_CH_Utility  ETV
vector 18  RSUExampleScenario.rsu[0].appl  Total_ON_Utility  ETV
vector 19  RSUExampleScenario.rsu[0].appl  Mean_ON_Utility  ETV
vector 20  RSUExampleScenario.rsu[0].appl  StdDev_ON_Utility  ETV
vector 21  RSUExampleScenario.rsu[0].appl  Variance_ON_Utility  ETV
vector 22  RSUExampleScenario.rsu[0].appl  Total_exp_ON_Utility  ETV
vector 23  RSUExampleScenario.rsu[0].appl  Mean_exp_ON_Utility  ETV
vector 24  RSUExampleScenario.rsu[0].appl  StdDev_exp_ON_Utility  ETV
vector 25  RSUExampleScenario.rsu[0].appl  Variance_exp_ON_Utility  ETV
0	145313	240	4
0	171180	260	5
0	198418	280	3
0	225690	300	5
0	252720	320	8
0	279956	340	8
0	307375	360	3
0	334996	380	5
0	362837	400	5
0	390903	420	7
0	419524	440	7
0	448748	460	4
0	478480	480	5
0	508976	500	4
0	540045	520	6
0	571791	540	6
0	604355	560	2
0	637595	580	1
0	671528	600	5
0	706513	620	7
0	742711	640	9
0	779777	660	6
0	817895	680	8
0	857091	700	7
0	898063	720	3
0	940322	740	6
0	983397	760	7
0	1027839	780	4
0	1073740	800	6
0	1120293	820	8
0	1168247	840	6
0	1216560	860	7
0	1266623	880	8
0	1317555	900	5
0	1370551	920	8
0	1424330	940	9
0	1479124	960	7
0	1535896	980	7
0	1593994	1000	8
0	1653707	1020	5
0	1714669	1040	4
0	1777018	1060	8
0	1840692	1080	7
0	1905973	1100	3
0	1973507	1120	7
0	2043429	1140	10
0	2114589	1160	9
0	2187849	1180	7
0	2262784	1200	8
0	2340368	1220	6
0	2419749	1240	10
0	2500126	1260	16
0	2583209	1280	7
0	2668352	1300	10
0	2755194	1320	9
0	2844537	1340	7
0	2936208	1360	8
0	3029746	1380	6
0	3124199	1400	10
0	3221399	1420	8
0	3320990	1440	6
0	3422464	1460	11
0	3526403	1480	9
0	3631868	1500	7
0	3740816	1520	8
0	3852046	1540	10
0	3965389	1560	9
0	4081340	1580	10
0	4199620	1600	7
0	4319770	1620	10
0	4442348	1640	9
0	4567656	1660	6
0	4695280	1680	7
0	4824828	1700	8
0	4957043	1720	9
0	5091075	1740	7
0	5228236	1760	5
0	5367504	1780	8
0	5509360	1800	4
0	5653634	1820	8
0	5800388	1840	6
0	5949282	1860	12
0	6101289	1880	9
0	6255461	1900	5
0	6412501	1920	8
0	6571182	1940	15
0	6733129	1960	12
0	6897787	1980	13
0	7064859	2000	9
1	145313	240	5
1	171180	260	6
1	198418	280	4
1	225690	300	6
1	252720	320	10
1	279956	340	11
1	307375	360	5
1	334996	380	7
1	362837	400	7
1	390903	420	8
1	419524	440	9
1	448748	460	7
1	478480	480	8
1	508976	500	6
1	540045	520	7
1	571791	540	8
1	604355	560	2
1	637595	580	2
1	671528	600	6
1	706513	620	9
1	742711	640	10
1	779777	660	10
1	817895	680	11
1	857091	700	10
1	898063	720	6
1	940322	740	7
1	983397	760	9
1	1027839	780	6
1	1073740	800	9
1	1120293	820	11
1	1168247	840	7
1	1216560	860	11
1	1266623	880	12
1	1317555	900	5
1	1370551	920	12
1	1424330	940	14
1	1479124	960	12
1	1535896	980	10
1	1593994	1000	10
1	1653707	1020	7
1	1714669	1040	7
1	1777018	1060	11
1	1840692	1080	8
1	1905973	1100	5
1	1973507	1120	7
1	2043429	1140	14
1	2114589	1160	11
1	2187849	1180	10
1	2262784	1200	12
1	2340368	1220	7
1	2419749	1240	14
1	2500126	1260	24
1	2583209	1280	11
1	2668352	1300	14
1	2755194	1320	12
1	2844537	1340	9
1	2936208	1360	10
1	3029746	1380	8
1	3124199	1400	16
1	3221399	1420	13
1	3320990	1440	10
1	3422464	1460	15
1	3526403	1480	11
1	3631868	1500	10
1	3740816	1520	11
1	3852046	1540	15
1	3965389	1560	16
1	4081340	1580	16
1	4199620	1600	10
1	4319770	1620	15
1	4442348	1640	13
1	4567656	1660	11
1	4695280	1680	12
1	4824828	1700	13
1	4957043	1720	16
1	5091075	1740	9
1	5228236	1760	8
1	5367504	1780	10
1	5509360	1800	4
1	5653634	1820	10
1	5800388	1840	6
1	5949282	1860	17
1	6101289	1880	13
1	6255461	1900	9
1	6412501	1920	12
1	6571182	1940	23
1	6733129	1960	18
1	6897787	1980	19
1	7064859	2000	10
2	145313	240	69
2	171180	260	74
2	198418	280	86
2	225690	300	82
2	252720	320	74
2	279956	340	74
2	307375	360	87
2	334996	380	83
2	362837	400	83
2	390903	420	82
2	419524	440	82
2	448748	460	87
2	478480	480	87
2	508976	500	91
2	540045	520	91
2	571791	540	89
2	604355	560	104
2	637595	580	104
2	671528	600	98
2	706513	620	93
2	742711	640	92
2	779777	660	95
2	817895	680	94
2	857091	700	98
2	898063	720	106
2	940322	740	103
2	983397	760	100
2	1027839	780	108
2	1073740	800	105
2	1120293	820	103
2	1168247	840	109
2	1216560	860	104
2	1266623	880	106
2	1317555	900	116
2	1370551	920	108
2	1424330	940	106
2	1479124	960	111
2	1535896	980	114
2	1593994	1000	115
2	1653707	1020	124
2	1714669	1040	126
2	1777018	1060	117
2	1840692	1080	123
2	1905973	1100	131
2	1973507	1120	128
2	2043429	1140	119
2	2114589	1160	123
2	2187849	1180	129
2	2262784	1200	127
2	2340368	1220	133
2	2419749	1240	125
2	2500126	1260	109
2	2583209	1280	133
2	2668352	1300	127
2	2755194	1320	132
2	2844537	1340	139
2	2936208	1360	138
2	3029746	1380	144
2	3124199	1400	132
2	3221399	1420	137
2	3320990	1440	143
2	3422464	1460	137
2	3526403	1480	142
2	3631868	1500	147
2	3740816	1520	145
2	3852046	1540	142
2	3965389	1560	142
2	4081340	1580	142
2	4199620	1600	153
2	4319770	1620	145
2	4442348	1640	153
2	4567656	1660	157
2	4695280	1680	157
2	4824828	1700	154
2	4957043	1720	153
2	5091075	1740	162
2	5228236	1760	168
2	5367504	1780	163
2	5509360	1800	176
2	5653634	1820	167
2	5800388	1840	173
2	5949282	1860	157
2	6101289	1880	167
2	6255461	1900	176
2	6412501	1920	171
2	6571182	1940	152
2	6733129	1960	164
2	6897787	1980	162
2	7064859	2000	176
3	145313	240	0
3	171180	260	0
3	198418	280	2
3	225690	300	1
3	252720	320	2
3	279956	340	2
3	307375	360	1
3	334996	380	3
3	362837	400	2
3	390903	420	1
3	419524	440	3
3	448748	460	1
3	478480	480	4
3	508976	500	1
3	540045	520	1
3	571791	540	5
3	604355	560	0
3	637595	580	1
3	671528	600	0
3	706513	620	2
3	742711	640	2
3	779777	660	0
3	817895	680	2
3	857091	700	2
3	898063	720	0
3	940322	740	3
3	983397	760	1
3	1027839	780	1
3	1073740	800	1
3	1120293	820	2
3	1168247	840	3
3	1216560	860	4
3	1266623	880	1
3	1317555	900	4
3	1370551	920	3
3	1424330	940	2
3	1479124	960	3
3	1535896	980	0
3	1593994	1000	3
3	1653707	1020	2
3	1714669	1040	3
3	1777018	1060	1
3	1840692	1080	2
3	1905973	1100	5
3	1973507	1120	3
3	2043429	1140	3
3	2114589	1160	2
3	2187849	1180	2
3	2262784	1200	7
3	2340368	1220	2
3	2419749	1240	4
3	2500126	1260	3
3	2583209	1280	3
3	2668352	1300	1
3	2755194	1320	0
3	2844537	1340	2
3	2936208	1360	5
3	3029746	1380	3
3	3124199	1400	2
3	3221399	1420	5
3	3320990	1440	3
3	3422464	1460	1
3	3526403	1480	2
3	3631868	1500	2
3	3740816	1520	3
3	3852046	1540	1
3	3965389	1560	0
3	4081340	1580	5
3	4199620	1600	0
3	4319770	1620	6
3	4442348	1640	1
3	4567656	1660	0
3	4695280	1680	1
3	4824828	1700	4
3	4957043	1720	5
3	5091075	1740	2
3	5228236	1760	3
3	5367504	1780	4
3	5509360	1800	2
3	5653634	1820	5
3	5800388	1840	1
3	5949282	1860	1
3	6101289	1880	0
3	6255461	1900	2
3	6412501	1920	5
3	6571182	1940	2
3	6733129	1960	2
3	6897787	1980	2
3	7064859	2000	3
4	145313	240	1.25
4	171180	260	1.2
4	198418	280	1.3333333333333
4	225690	300	1.2
4	252720	320	1.25
4	279956	340	1.375
4	307375	360	1.6666666666667
4	334996	380	1.4
4	362837	400	1.4
4	390903	420	1.1428571428571
4	419524	440	1.2857142857143
4	448748	460	1.75
4	478480	480	1.6
4	508976	500	1.5
4	540045	520	1.1666666666667
4	571791	540	1.3333333333333
4	604355	560	1
4	637595	580	2
4	671528	600	1.2
4	706513	620	1.2857142857143
4	742711	640	1.1111111111111
4	779777	660	1.6666666666667
4	817895	680	1.375
4	857091	700	1.4285714285714
4	898063	720	2
4	940322	740	1.1666666666667
4	983397	760	1.2857142857143
4	1027839	780	1.5
4	1073740	800	1.5
4	1120293	820	1.375
4	1168247	840	1.1666666666667
4	1216560	860	1.5714285714286
4	1266623	880	1.5
4	1317555	900	1
4	1370551	920	1.5
4	1424330	940	1.5555555555556
4	1479124	960	1.7142857142857
4	1535896	980	1.4285714285714
4	1593994	1000	1.25
4	1653707	1020	1.4
4	1714669	1040	1.75
4	1777018	1060	1.375
4	1840692	1080	1.1428571428571
4	1905973	1100	1.6666666666667
4	1973507	1120	1
4	2043429	1140	1.4
4	2114589	1160	1.2222222222222
4	2187849	1180	1.4285714285714
4	2262784	1200	1.5
4	2340368	1220	1.1666666666667
4	2419749	1240	1.4
4	2500126	1260	1.5
4	2583209	1280	1.5714285714286
4	2668352	1300	1.4
4	2755194	1320	1.3333333333333
4	2844537	1340	1.2857142857143
4	2936208	1360	1.25
4	3029746	1380	1.3333333333333
4	3124199	1400	1.6
4	3221399	1420	1.625
4	3320990	1440	1.6666666666667
4	3422464	1460	1.3636363636364
4	3526403	1480	1.2222222222222
4	3631868	1500	1.4285714285714
4	3740816	1520	1.375
4	3852046	1540	1.5
4	3965389	1560	1.7777777777778
4	4081340	1580	1.6
4	4199620	1600	1.4285714285714
4	4319770	1620	1.5
4	4442348	1640	1.4444444444444
4	4567656	1660	1.8333333333333
4	4695280	1680	1.7142857142857
4	4824828	1700	1.625
4	4957043	1720	1.7777777777778
4	5091075	1740	1.2857142857143
4	5228236	1760	1.6
4	5367504	1780	1.25
4	5509360	1800	1
4	5653634	1820	1.25
4	5800388	1840	1
4	5949282	1860	1.4166666666667
4	6101289	1880	1.4444444444444
4	6255461	1900	1.8
4	6412501	1920	1.5
4	6571182	1940	1.5333333333333
4	6733129	1960	1.5
4	6897787	1980	1.4615384615385
4	7064859	2000	1.1111111111111
5	145313	240	0.5
5	171180	260	0.44721359549996
5	198418	280	0.57735026918963
5	225690	300	0.44721359549996
5	252720	320	0.46291004988628
5	279956	340	0.51754916950677
5	307375	360	0.57735026918963
5	334996	380	0.54772255750517
5	362837	400	0.54772255750517
5	390903	420	0.37796447300923
5	419524	440	0.48795003647427
5	448748	460	0.5
5	478480	480	0.54772255750517
5	508976	500	0.57735026918963
5	540045	520	0.40824829046386
5	571791	540	0.51639777949432
5	604355	560	0
5	637595	580	nan
5	671528	600	0.44721359549996
5	706513	620	0.48795003647427
5	742711	640	0.33333333333333
5	779777	660	0.81649658092773
5	817895	680	0.51754916950677
5	857091	700	0.53452248382485
5	898063	720	1
5	940322	740	0.40824829046386
5	983397	760	0.48795003647427
5	1027839	780	0.57735026918963
5	1073740	800	0.54772255750517
5	1120293	820	0.51754916950677
5	1168247	840	0.40824829046386
5	1216560	860	0.53452248382485
5	1266623	880	0.53452248382485
5	1317555	900	0
5	1370551	920	0.75592894601845
5	1424330	940	0.52704627669473
5	1479124	960	0.48795003647427
5	1535896	980	0.53452248382485
5	1593994	1000	0.46291004988628
5	1653707	1020	0.54772255750517
5	1714669	1040	0.5
5	1777018	1060	0.51754916950677
5	1840692	1080	0.37796447300923
5	1905973	1100	0.57735026918963
5	1973507	1120	0
5	2043429	1140	0.51639777949432
5	2114589	1160	0.4409585518441
5	2187849	1180	0.53452248382485
5	2262784	1200	0.53452248382485
5	2340368	1220	0.40824829046386
5	2419749	1240	0.51639777949432
5	2500126	1260	0.51639777949432
5	2583209	1280	0.53452248382485
5	2668352	1300	0.51639777949432
5	2755194	1320	0.5
5	2844537	1340	0.48795003647427
5	2936208	1360	0.46291004988628
5	3029746	1380	0.51639777949432
5	3124199	1400	0.51639777949432
5	3221399	1420	0.51754916950677
5	3320990	1440	0.81649658092773
5	3422464	1460	0.50452497910951
5	3526403	1480	0.4409585518441
5	3631868	1500	0.53452248382485
5	3740816	1520	0.51754916950677
5	3852046	1540	0.52704627669473
5	3965389	1560	0.4409585518441
5	4081340	1580	0.51639777949432
5	4199620	1600	0.53452248382485
5	4319770	1620	0.52704627669473
5	4442348	1640	0.52704627669473
5	4567656	1660	0.40824829046386
5	4695280	1680	0.48795003647427
5	4824828	1700	0.51754916950677
5	4957043	1720	0.4409585518441
5	5091075	1740	0.48795003647427
5	5228236	1760	0.54772255750517
5	5367504	1780	0.46291004988628
5	5509360	1800	0
5	5653634	1820	0.46291004988628
5	5800388	1840	0
5	5949282	1860	0.51492865054444
5	6101289	1880	0.52704627669473
5	6255461	1900	0.44721359549996
5	6412501	1920	0.53452248382485
5	6571182	1940	0.51639777949432
5	6733129	1960	0.52223296786709
5	6897787	1980	0.51887452166277
5	7064859	2000	0.33333333333333
6	145313	240	0.25
6	171180	260	0.2
6	198418	280	0.33333333333333
6	225690	300	0.2
6	252720	320	0.21428571428571
6	279956	340	0.26785714285714
6	307375	360	0.33333333333333
6	334996	380	0.3
6	362837	400	0.3
6	390903	420	0.14285714285714
6	419524	440	0.23809523809524
6	448748	460	0.25
6	478480	480	0.3
6	508976	500	0.33333333333333
6	540045	520	0.16666666666667
6	571791	540	0.26666666666667
6	604355	560	0
6	637595	580	nan
6	671528	600	0.2
6	706513	620	0.23809523809524
6	742711	640	0.11111111111111
6	779777	660	0.66666666666667
6	817895	680	0.26785714285714
6	857091	700	0.28571428571429
6	898063	720	1
6	940322	740	0.16666666666667
6	983397	760	0.23809523809524
6	1027839	780	0.33333333333333
6	1073740	800	0.3
6	1120293	820	0.26785714285714
6	1168247	840	0.16666666666667
6	1216560	860	0.28571428571429
6	1266623	880	0.28571428571429
6	1317555	900	0
6	1370551	920	0.57142857142857
6	1424330	940	0.27777777777778
6	1479124	960	0.23809523809524
6	1535896	980	0.28571428571429
6	1593994	1000	0.21428571428571
6	1653707	1020	0.3
6	1714669	1040	0.25
6	1777018	1060	0.26785714285714
6	1840692	1080	0.14285714285714
6	1905973	1100	0.33333333333333
6	1973507	1120	0
6	2043429	1140	0.26666666666667
6	2114589	1160	0.19444444444444
6	2187849	1180	0.28571428571429
6	2262784	1200	0.28571428571429
6	2340368	1220	0.16666666666667
6	2419749	1240	0.26666666666667
6	2500126	1260	0.26666666666667
6	2583209	1280	0.28571428571429
6	2668352	1300	0.26666666666667
6	2755194	1320	0.25
6	2844537	1340	0.23809523809524
6	2936208	1360	0.21428571428571
6	3029746	1380	0.26666666666667
6	3124199	1400	0.26666666666667
6	3221399	1420	0.26785714285714
6	3320990	1440	0.66666666666667
6	3422464	1460	0.25454545454545
6	3526403	1480	0.19444444444444
6	3631868	1500	0.28571428571429
6	3740816	1520	0.26785714285714
6	3852046	1540	0.27777777777778
6	3965389	1560	0.19444444444444
6	4081340	1580	0.26666666666667
6	4199620	1600	0.28571428571429
6	4319770	1620	0.27777777777778
6	4442348	1640	0.27777777777778
6	4567656	1660	0.16666666666667
6	4695280	1680	0.23809523809524
6	4824828	1700	0.26785714285714
6	4957043	1720	0.19444444444444
6	5091075	1740	0.23809523809524
6	5228236	1760	0.3
6	5367504	1780	0.21428571428571
6	5509360	1800	0
6	5653634	1820	0.21428571428571
6	5800388	1840	0
6	5949282	1860	0.26515151515152
6	6101289	1880	0.27777777777778
6	6255461	1900	0.2
6	6412501	1920	0.28571428571429
6	6571182	1940	0.26666666666667
6	6733129	1960	0.27272727272727
6	6897787	1980	0.26923076923077
6	7064859	2000	0.11111111111111
7	145313	240	22.858974358974
7	171180	260	22.823529411765
7	198418	280	22.021505376344
7	225690	300	22.47311827957
7	252720	320	22.45652173913
7	279956	340	22.10752688172
7	307375	360	22.052631578947
7	334996	380	22.115789473684
7	362837	400	22.404255319149
7	390903	420	21.721649484536
7	419524	440	22.030612244898
7	448748	460	22.112244897959
7	478480	480	22.25
7	508976	500	22.613861386139
7	540045	520	21.855769230769
7	571791	540	22.893203883495
7	604355	560	22.611111111111
7	637595	580	23.130841121495
7	671528	600	23.422018348624
7	706513	620	24.148148148148
7	742711	640	24.027027027027
7	779777	660	24.954954954955
7	817895	680	25.097345132743
7	857091	700	25.973913043478
7	898063	720	26.24347826087
7	940322	740	27.241379310345
7	983397	760	27.827586206897
7	1027839	780	28.076271186441
7	1073740	800	28.875
7	1120293	820	28.909836065574
7	1168247	840	29.090909090909
7	1216560	860	29.106557377049
7	1266623	880	29.404761904762
7	1317555	900	29.992063492063
7	1370551	920	30.8203125
7	1424330	940	30.550387596899
7	1479124	960	31.292307692308
7	1535896	980	31.702290076336
7	1593994	1000	31.796992481203
7	1653707	1020	32.080882352941
7	1714669	1040	32.845588235294
7	1777018	1060	33.562962962963
7	1840692	1080	33.398550724638
7	1905973	1100	33.978417266187
7	1973507	1120	34.774647887324
7	2043429	1140	36.415492957746
7	2114589	1160	36.781690140845
7	2187849	1180	37.31724137931
7	2262784	1200	37.965753424658
7	2340368	1220	38.801369863014
7	2419749	1240	39.547297297297
7	2500126	1260	40.315436241611
7	2583209	1280	40.562913907285
7	2668352	1300	41.245033112583
7	2755194	1320	41.828947368421
7	2844537	1340	42.941935483871
7	2936208	1360	43.5
7	3029746	1380	43.898734177215
7	3124199	1400	44.854430379747
7	3221399	1420	45.316455696203
7	3320990	1440	46.012578616352
7	3422464	1460	46.533742331288
7	3526403	1480	47.382716049383
7	3631868	1500	48.012195121951
7	3740816	1520	49.323170731707
7	3852046	1540	49.580838323353
7	3965389	1560	49.880239520958
7	4081340	1580	50.744047619048
7	4199620	1600	51.329411764706
7	4319770	1620	52.205882352941
7	4442348	1640	51.628571428571
7	4567656	1660	52.862068965517
7	4695280	1680	53.217142857143
7	4824828	1700	53.76
7	4957043	1720	54.050561797753
7	5091075	1740	54.702247191011
7	5228236	1760	55.261111111111
7	5367504	1780	55.845303867403
7	5509360	1800	55.809782608696
7	5653634	1820	56.351351351351
7	5800388	1840	57.221621621622
7	5949282	1860	57.817204301075
7	6101289	1880	58.632978723404
7	6255461	1900	59.057894736842
7	6412501	1920	59.434554973822
7	6571182	1940	60.257894736842
7	6733129	1960	60.567010309278
7	6897787	1980	61.577319587629
7	7064859	2000	61.974358974359
8	145313	240	4.7007166045973
8	171180	260	3.6193148213316
8	198418	280	5.3140062971925
8	225690	300	4.4808563764411
8	252720	320	3.7721158649256
8	279956	340	4.6285089288194
8	307375	360	4.458719454208
8	334996	380	4.8878119324624
8	362837	400	4.2863101632793
8	390903	420	4.7887504199104
8	419524	440	4.9293024153225
8	448748	460	4.8776423514316
8	478480	480	4.2625335094509
8	508976	500	3.9773616808877
8	540045	520	4.8699958518169
8	571791	540	3.5587853770612
8	604355	560	4.1666978191982
8	637595	580	3.7644917774441
8	671528	600	3.7571994544342
8	706513	620	3.7685734796213
8	742711	640	3.8904532558079
8	779777	660	3.9826610277036
8	817895	680	4.5256503119321
8	857091	700	5.0929274481748
8	898063	720	5.5355173839359
8	940322	740	6.4384992710699
8	983397	760	6.4703683949538
8	1027839	780	7.0640014079586
8	1073740	800	7.5510169608376
8	1120293	820	8.0771119320575
8	1168247	840	7.8347516446492
8	1216560	860	8.1593705974338
8	1266623	880	9.1897147476327
8	1317555	900	9.09109105157
8	1370551	920	9.8735577786663
8	1424330	940	9.9160233652329
8	1479124	960	10.124378555986
8	1535896	980	10.531779494966
8	1593994	1000	10.894646585348
8	1653707	1020	11.393341230775
8	1714669	1040	12.105021104802
8	1777018	1060	12.388974038333
8	1840692	1080	12.765452839811
8	1905973	1100	13.344633414038
8	1973507	1120	14.131798240364
8	2043429	1140	14.773103294871
8	2114589	1160	15.156917385831
8	2187849	1180	15.728911564499
8	2262784	1200	16.417574428584
8	2340368	1220	17.588640481078
8	2419749	1240	17.599603605408
8	2500126	1260	17.834103091701
8	2583209	1280	18.310498321615
8	2668352	1300	19.212137443959
8	2755194	1320	18.819032326147
8	2844537	1340	20.090457355398
8	2936208	1360	20.853869448324
8	3029746	1380	21.46518136719
8	3124199	1400	21.963729785867
8	3221399	1420	22.307374636072
8	3320990	1440	22.487405032169
8	3422464	1460	23.278847020945
8	3526403	1480	23.88225147331
8	3631868	1500	24.363803939269
8	3740816	1520	25.142034798543
8	3852046	1540	25.460181370869
8	3965389	1560	25.698859005005
8	4081340	1580	25.848475330894
8	4199620	1600	26.107600849889
8	4319770	1620	26.558609310481
8	4442348	1640	27.405307936965
8	4567656	1660	27.025858913824
8	4695280	1680	27.195519045564
8	4824828	1700	27.286466688962
8	4957043	1720	27.595805886175
8	5091075	1740	27.689890780189
8	5228236	1760	28.200670361082
8	5367504	1780	28.639489880261
8	5509360	1800	28.795334168886
8	5653634	1820	28.924391895656
8	5800388	1840	29.355570680277
8	5949282	1860	29.39220203132
8	6101289	1880	29.874933202612
8	6255461	1900	29.922330069937
8	6412501	1920	30.493910689563
8	6571182	1940	30.550882455747
8	6733129	1960	31.163751766693
8	6897787	1980	30.961729695408
8	7064859	2000	31.550227652459
9	145313	240	22.096736596737
9	171180	260	13.09943977591
9	198418	280	28.238662926601
9	225690	300	20.078073866293
9	252720	320	14.228858098423
9	279956	340	21.423094904161
9	307375	360	19.880179171333
9	334996	380	23.890705487122
9	362837	400	18.372454815832
9	390903	420	22.932130584192
9	419524	440	24.298022301704
9	448748	460	23.791394908479
9	478480	480	18.169191919192
9	508976	500	15.819405940594
9	540045	520	23.716859596714
9	571791	540	12.664953359985
9	604355	560	17.361370716511
9	637595	580	14.171398342444
9	671528	600	14.116547740401
9	706513	620	14.202146071305
9	742711	640	15.135626535627
9	779777	660	15.861588861589
9	817895	680	20.481510745891
9	857091	700	25.937909992372
9	898063	720	30.641952707857
9	940322	740	41.454272863568
9	983397	760	41.865667166417
9	1027839	780	49.900115891641
9	1073740	800	57.017857142857
9	1120293	820	65.239737162986
9	1168247	840	61.383333333333
9	1216560	860	66.575328546267
9	1266623	880	84.450857142857
9	1317555	900	82.647936507937
9	1370551	920	97.487143208661
9	1424330	940	98.327519379845
9	1479124	960	102.5030411449
9	1535896	980	110.91837933059
9	1593994	1000	118.69332421964
9	1653707	1020	129.80822440087
9	1714669	1040	146.53153594771
9	1777018	1060	153.4866777225
9	1840692	1080	162.95678620544
9	1905973	1100	178.07924095506
9	1973507	1120	199.70772150634
9	2043429	1140	218.24458096094
9	2114589	1160	229.7321446409
9	2187849	1180	247.39865900383
9	2262784	1200	269.53675011809
9	2340368	1220	309.3602739726
9	2419749	1240	309.74604706748
9	2500126	1260	318.05523308543
9	2583209	1280	335.27434878587
9	2668352	1300	369.10622516556
9	2755194	1320	354.15597769258
9	2844537	1340	403.62647674906
9	2936208	1360	434.88387096774
9	3029746	1380	460.75401112634
9	3124199	1400	482.40542610659
9	3221399	1420	497.61896315408
9	3320990	1440	505.68338508081
9	3422464	1460	541.90471862456
9	3526403	1480	570.3619354344
9	3631868	1500	593.59494239114
9	3740816	1520	632.12191381116
9	3852046	1540	648.22083543756
9	3965389	1560	660.43135415915
9	4081340	1580	668.14367693185
9	4199620	1600	681.60682213714
9	4319770	1620	705.35972850679
9	4442348	1640	751.05090311987
9	4567656	1660	730.3970500299
9	4695280	1680	739.59625615764
9	4824828	1700	744.55126436782
9	4957043	1720	761.52850250746
9	5091075	1740	766.73005141878
9	5228236	1760	795.2778088144
9	5367504	1780	820.2203806016
9	5509360	1800	829.17126989784
9	5653634	1820	836.62044653349
9	5800388	1840	861.74952996475
9	5949282	1860	863.90154024993
9	6101289	1880	892.51163386051
9	6255461	1900	895.34583681426
9	6412501	1920	929.87858914301
9	6571182	1940	933.35641882484
9	6733129	1960	971.17942417606
9	6897787	1980	958.62870573153
9	7064859	2000	995.41686492202
10	145313	240	188.72153953832
10	171180	260	239.13074359662
10	198418	280	144.78062903816
10	225690	300	239.78599914494
10	252720	320	396.66727060629
10	279956	340	381.24091510394
10	307375	360	140.73321608768
10	334996	380	253.7620880432
10	362837	400	242.74478562031
10	390903	420	333.963142499
10	419524	440	339.60770882485
10	448748	460	192.70941560763
10	478480	480	235.14430492443
10	508976	500	190.67242908935
10	540045	520	291.3691728289
10	571791	540	288.6207087019
10	604355	560	94.793279199296
10	637595	580	50.51473834997
10	671528	600	241.24776784141
10	706513	620	352.64462533223
10	742711	640	437.27769872727
10	779777	660	288.5263860023
10	817895	680	392.44998039952
10	857091	700	348.59450614677
10	898063	720	147.69304852659
10	940322	740	289.91058154353
10	983397	760	337.18152761343
10	1027839	780	189.45289963327
10	1073740	800	301.69246641849
10	1120293	820	403.29707760482
10	1168247	840	301.01866036171
10	1216560	860	358.15712649664
10	1266623	880	398.46731605312
10	1317555	900	242.14023342409
10	1370551	920	388.10377318231
10	1424330	940	439.48925119952
10	1479124	960	349.10529786218
10	1535896	980	351.64949502603
10	1593994	1000	396.0810121866
10	1653707	1020	246.97373706103
10	1714669	1040	195.32231298084
10	1777018	1060	397.47540015996
10	1840692	1080	351.57848172048
10	1905973	1100	150.21562998382
10	1973507	1120	350.037589514
10	2043429	1140	507.4013656041
10	2114589	1160	444.18497654217
10	2187849	1180	358.93873524776
10	2262784	1200	406.50744946628
10	2340368	1220	289.42847686232
10	2419749	1240	490.73225684835
10	2500126	1260	802.36496414306
10	2583209	1280	341.46364287038
10	2668352	1300	492.18991199669
10	2755194	1320	432.68122572083
10	2844537	1340	346.79040053743
10	2936208	1360	406.02457474937
10	3029746	1380	299.15296050605
10	3124199	1400	503.16633168626
10	3221399	1420	400.37741452251
10	3320990	1440	298.49827858829
10	3422464	1460	566.33490732798
10	3526403	1480	444.93020118132
10	3631868	1500	360.63858713614
10	3740816	1520	405.75110576926
10	3852046	1540	492.23010115198
10	3965389	1560	448.98839556913
10	4081340	1580	501.77592645227
10	4199620	1600	355.37344795007
10	4319770	1620	503.60578167338
10	4442348	1640	453.30245589559
10	4567656	1660	302.41627719622
10	4695280	1680	352.11362540847
10	4824828	1700	410.80917041772
10	4957043	1720	452.91948610179
10	5091075	1740	348.2933911161
10	5228236	1760	243.85330733834
10	5367504	1780	394.57431600516
10	5509360	1800	203.2164273425
10	5653634	1820	413.39315118314
10	5800388	1840	304.61348573725
10	5949282	1860	618.89111170311
10	6101289	1880	442.81942798756
10	6255461	1900	253.35436701578
10	6412501	1920	404.67239393329
10	6571182	1940	744.98306145374
10	6733129	1960	593.9694861078
10	6897787	1980	658.90366486977
10	7064859	2000	450.16258841677
11	145313	240	47.180384884579
11	171180	260	47.826148719323
11	198418	280	48.260209679385
11	225690	300	47.957199828988
11	252720	320	49.583408825786
11	279956	340	47.655114387992
11	307375	360	46.911072029225
11	334996	380	50.752417608641
11	362837	400	48.548957124062
11	390903	420	47.709020356999
11	419524	440	48.515386974979
11	448748	460	48.177353901908
11	478480	480	47.028860984886
11	508976	500	47.668107272337
11	540045	520	48.561528804816
11	571791	540	48.103451450316
11	604355	560	47.396639599648
11	637595	580	50.51473834997
11	671528	600	48.249553568283
11	706513	620	50.377803618891
11	742711	640	48.586410969696
11	779777	660	48.087731000383
11	817895	680	49.05624754994
11	857091	700	49.799215163824
11	898063	720	49.231016175531
11	940322	740	48.318430257254
11	983397	760	48.168789659061
11	1027839	780	47.363224908316
11	1073740	800	50.282077736414
11	1120293	820	50.412134700603
11	1168247	840	50.169776726952
11	1216560	860	51.165303785234
11	1266623	880	49.808414506639
11	1317555	900	48.428046684818
11	1370551	920	48.512971647789
11	1424330	940	48.832139022169
11	1479124	960	49.872185408883
11	1535896	980	50.235642146575
11	1593994	1000	49.510126523325
11	1653707	1020	49.394747412206
11	1714669	1040	48.830578245209
11	1777018	1060	49.684425019995
11	1840692	1080	50.22549738864
11	1905973	1100	50.071876661275
11	1973507	1120	50.005369930572
11	2043429	1140	50.74013656041
11	2114589	1160	49.353886282463
11	2187849	1180	51.276962178252
11	2262784	1200	50.813431183285
11	2340368	1220	48.238079477053
11	2419749	1240	49.073225684835
11	2500126	1260	50.147810258941
11	2583209	1280	48.780520410054
11	2668352	1300	49.218991199669
11	2755194	1320	48.075691746759
11	2844537	1340	49.541485791061
11	2936208	1360	50.753071843671
11	3029746	1380	49.858826751009
11	3124199	1400	50.316633168626
11	3221399	1420	50.047176815314
11	3320990	1440	49.749713098049
11	3422464	1460	51.484991575271
11	3526403	1480	49.436689020146
11	3631868	1500	51.519798162306
11	3740816	1520	50.718888221157
11	3852046	1540	49.223010115198
11	3965389	1560	49.887599507681
11	4081340	1580	50.177592645227
11	4199620	1600	50.767635421438
11	4319770	1620	50.360578167338
11	4442348	1640	50.366939543955
11	4567656	1660	50.402712866037
11	4695280	1680	50.301946486925
11	4824828	1700	51.351146302215
11	4957043	1720	50.324387344643
11	5091075	1740	49.756198730871
11	5228236	1760	48.770661467668
11	5367504	1780	49.321789500645
11	5509360	1800	50.804106835626
11	5653634	1820	51.674143897892
11	5800388	1840	50.768914289542
11	5949282	1860	51.574259308593
11	6101289	1880	49.202158665285
11	6255461	1900	50.670873403155
11	6412501	1920	50.584049241662
11	6571182	1940	49.665537430249
11	6733129	1960	49.49745717565
11	6897787	1980	50.684897297674
11	7064859	2000	50.018065379641
12	145313	240	1.7758316062413
12	171180	260	1.7182188424327
12	198418	280	1.640543196893
12	225690	300	2.5786478425313
12	252720	320	2.8702617177683
12	279956	340	1.1802839295104
12	307375	360	1.05132515214
12	334996	380	3.6203760086973
12	362837	400	2.813229041279
12	390903	420	2.5895477126139
12	419524	440	2.2963745807664
12	448748	460	1.533454670898
12	478480	480	1.0677186855444
12	508976	500	2.0919052217092
12	540045	520	2.2447747241082
12	571791	540	2.0081044489563
12	604355	560	0.59032192052084
12	637595	580	nan
12	671528	600	2.037374785924
12	706513	620	3.3404279623077
12	742711	640	1.3307011667818
12	779777	660	1.1188442926288
12	817895	680	1.9972744261016
12	857091	700	2.0742981643963
12	898063	720	2.4821731161684
12	940322	740	1.2621742542532
12	983397	760	1.9255114150644
12	1027839	780	0.92672093499224