version 2
run statisticRVV-76-20150327-02:33:30-14164
attr c 8
attr configname statisticRVV
attr datetime 20150327-02:33:30
attr experiment statisticRVV
attr inifile omnetpp.ini
attr iterationvars "$sc=\"erlangen-low.launchd.xml\", $p=1/8, $c=8"
attr iterationvars2 "$sc=\"erlangen-low.launchd.xml\", $p=1/8, $c=8, $repetition=6"
attr measurement "$sc=\"erlangen-low.launchd.xml\", $p=1/8, $c=8"
attr network RSUExampleScenario
attr p 1/8
attr processid 14164
attr repetition 6
attr replication #6
attr resultdir results
attr runnumber 76
attr sc "\"erlangen-low.launchd.xml\""
attr seedset 76

vector 0  RSUExampleScenario.rsu[0].appl  Number_CH  ETV
vector 1  RSUExampleScenario.rsu[0].appl  Number_ON  ETV
vector 2  RSUExampleScenario.rsu[0].appl  Number_FN  ETV
vector 3  RSUExampleScenario.rsu[0].appl  Number_CH_Losts  ETV
vector 4  RSUExampleScenario.rsu[0].appl  Number_CH_Losts  ETV
vector 5  RSUExampleScenario.rsu[0].appl  Mean_Cluster_Size  ETV
vector 6  RSUExampleScenario.rsu[0].appl  StdDev_Cluster_Size  ETV
vector 7  RSUExampleScenario.rsu[0].appl  Variance_Cluster_Size  ETV
vector 8  RSUExampleScenario.rsu[0].appl  Mean_Neighbors  ETV
vector 9  RSUExampleScenario.rsu[0].appl  StdDev_Neighbors  ETV
vector 10  RSUExampleScenario.rsu[0].appl  Variance_Neighbors  ETV
vector 11  RSUExampleScenario.rsu[0].appl  Total_CH_Utility  ETV
vector 12  RSUExampleScenario.rsu[0].appl  Mean_CH_Utility  ETV
vector 13  RSUExampleScenario.rsu[0].appl  StdDev_CH_Utility  ETV
vector 14  RSUExampleScenario.rsu[0].appl  Variance_CH_Utility  ETV
vector 15  RSUExampleScenario.rsu[0].appl  Total_exp_CH_Utility  ETV
vector 16  RSUExampleScenario.rsu[0].appl  Mean_exp_CH_Utility  ETV
vector 17  RSUExampleScenario.rsu[0].appl  StdDev_exp_CH_Utility  ETV
vector 18  RSUExampleScenario.rsu[0].appl  Variance_exp_CH_Utility  ETV
vector 19  RSUExampleScenario.rsu[0].appl  Total_ON_Utility  ETV
vector 20  RSUExampleScenario.rsu[0].appl  Mean_ON_Utility  ETV
vector 21  RSUExampleScenario.rsu[0].appl  StdDev_ON_Utility  ETV
vector 22  RSUExampleScenario.rsu[0].appl  Variance_ON_Utility  ETV
vector 23  RSUExampleScenario.rsu[0].appl  Total_exp_ON_Utility  ETV
vector 24  RSUExampleScenario.rsu[0].appl  Mean_exp_ON_Utility  ETV
vector 25  RSUExampleScenario.rsu[0].appl  StdDev_exp_ON_Utility  ETV
vector 26  RSUExampleScenario.rsu[0].appl  Variance_exp_ON_Utility  ETV
0	34591	240	8
0	39843	260	6
0	45196	280	6
0	50357	300	6
0	55566	320	4
0	61025	340	5
0	66427	360	3
0	71768	380	6
0	77044	400	7
0	82264	420	4
0	87544	440	4
0	92911	460	7
0	98178	480	6
0	103501	500	3
0	108859	520	3
0	114125	540	6
0	119288	560	6
0	124568	580	7
0	129968	600	3
0	135217	620	6
0	140425	640	5
0	145654	660	3
0	151044	680	5
0	156360	700	7
0	161703	720	4
0	167050	740	4
0	172276	760	4
0	177589	780	5
0	183015	800	5
0	188364	820	5
0	193649	840	4
0	198891	860	4
0	204101	880	4
0	209349	900	2
0	214698	920	5
0	220057	940	1
0	225382	960	5
0	230518	980	6
0	235893	1000	7
0	241222	1020	5
0	246545	1040	7
0	251906	1060	4
0	257277	1080	3
0	262665	1100	5
0	268030	1120	4
0	273346	1140	5
0	278573	1160	4
0	283859	1180	4
0	289168	1200	5
0	294352	1220	4
0	299598	1240	4
0	305028	1260	4
0	310431	1280	6
0	315721	1300	8
0	321046	1320	7
0	326343	1340	2
0	331719	1360	1
0	337003	1380	3
0	342359	1400	3
0	347655	1420	5
0	352974	1440	3
0	358311	1460	6
0	363729	1480	2
0	369019	1500	2
0	374233	1520	4
0	379567	1540	4
0	384893	1560	4
0	390271	1580	2
0	395583	1600	4
0	400967	1620	5
0	406319	1640	5
0	411680	1660	3
0	416997	1680	2
0	422247	1700	6
0	427512	1720	6
0	432892	1740	4
0	438168	1760	3
0	443555	1780	3
0	448921	1800	7
0	453826	1820	5
0	458051	1840	4
0	461850	1860	5
0	465178	1880	1
0	468055	1900	5
0	470600	1920	1
0	472634	1940	1
0	474232	1960	3
0	475244	1980	0
0	475830	2000	0
1	34591	240	18
1	39843	260	10
1	45196	280	16
1	50357	300	12
1	55566	320	11
1	61025	340	15
1	66427	360	7
1	71768	380	11
1	77044	400	19
1	82264	420	9
1	87544	440	8
1	92911	460	21
1	98178	480	13
1	103501	500	7
1	108859	520	6
1	114125	540	12
1	119288	560	16
1	124568	580	15
1	129968	600	5
1	135217	620	12
1	140425	640	14
1	145654	660	7
1	151044	680	14
1	156360	700	14
1	161703	720	13
1	167050	740	6
1	172276	760	12
1	177589	780	15
1	183015	800	14
1	188364	820	14
1	193649	840	11
1	198891	860	11
1	204101	880	4
1	209349	900	8
1	214698	920	12
1	220057	940	4
1	225382	960	11
1	230518	980	17
1	235893	1000	17
1	241222	1020	12
1	246545	1040	17
1	251906	1060	11
1	257277	1080	7
1	262665	1100	16
1	268030	1120	12
1	273346	1140	18
1	278573	1160	12
1	283859	1180	10
1	289168	1200	12
1	294352	1220	6
1	299598	1240	14
1	305028	1260	11
1	310431	1280	14
1	315721	1300	18
1	321046	1320	13
1	326343	1340	5
1	331719	1360	2
1	337003	1380	9
1	342359	1400	11
1	347655	1420	8
1	352974	1440	10
1	358311	1460	17
1	363729	1480	6
1	369019	1500	5
1	374233	1520	14
1	379567	1540	10
1	384893	1560	10
1	390271	1580	10
1	395583	1600	15
1	400967	1620	9
1	406319	1640	14
1	411680	1660	8
1	416997	1680	7
1	422247	1700	15
1	427512	1720	14
1	432892	1740	7
1	438168	1760	5
1	443555	1780	11
1	448921	1800	16
1	453826	1820	9
1	458051	1840	7
1	461850	1860	12
1	465178	1880	2
1	468055	1900	8
1	470600	1920	2
1	472634	1940	3
1	474232	1960	6
1	475244	1980	0
1	475830	2000	0
2	34591	240	13
2	39843	260	23
2	45196	280	18
2	50357	300	21
2	55566	320	26
2	61025	340	21
2	66427	360	30
2	71768	380	23
2	77044	400	13
2	82264	420	27
2	87544	440	29
2	92911	460	13
2	98178	480	20
2	103501	500	30
2	108859	520	31
2	114125	540	22
2	119288	560	17
2	124568	580	18
2	129968	600	31
2	135217	620	22
2	140425	640	20
2	145654	660	29
2	151044	680	22
2	156360	700	20
2	161703	720	23
2	167050	740	31
2	172276	760	25
2	177589	780	21
2	183015	800	22
2	188364	820	22
2	193649	840	24
2	198891	860	24
2	204101	880	32
2	209349	900	30
2	214698	920	23
2	220057	940	35
2	225382	960	24
2	230518	980	16
2	235893	1000	17
2	241222	1020	24
2	246545	1040	17
2	251906	1060	26
2	257277	1080	29
2	262665	1100	19
2	268030	1120	23
2	273346	1140	18
2	278573	1160	24
2	283859	1180	25
2	289168	1200	23
2	294352	1220	29
2	299598	1240	22
2	305028	1260	26
2	310431	1280	21
2	315721	1300	14
2	321046	1320	20
2	326343	1340	33
2	331719	1360	39
2	337003	1380	27
2	342359	1400	27
2	347655	1420	28
2	352974	1440	28
2	358311	1460	17
2	363729	1480	32
2	369019	1500	33
2	374233	1520	21
2	379567	1540	26
2	384893	1560	25
2	390271	1580	28
2	395583	1600	22
2	400967	1620	25
2	406319	1640	21
2	411680	1660	29
2	416997	1680	32
2	422247	1700	20
2	427512	1720	20
2	432892	1740	29
2	438168	1760	32
2	443555	1780	26
2	448921	1800	18
2	453826	1820	23
2	458051	1840	23
2	461850	1860	14
2	465178	1880	24
2	468055	1900	11
2	470600	1920	18
2	472634	1940	13
2	474232	1960	4
2	475244	1980	10
2	475830	2000	7
3	34591	240	3
3	39843	260	0
3	45196	280	1
3	50357	300	0
3	55566	320	0
3	61025	340	0
3	66427	360	1
3	71768	380	2
3	77044	400	0
3	82264	420	0
3	87544	440	2
3	92911	460	0
3	98178	480	0
3	103501	500	1
3	108859	520	0
3	114125	540	0
3	119288	560	0
3	124568	580	1
3	129968	600	0
3	135217	620	1
3	140425	640	1
3	145654	660	0
3	151044	680	1
3	156360	700	1
3	161703	720	1
3	167050	740	0
3	172276	760	0
3	177589	780	1
3	183015	800	0
3	188364	820	0
3	193649	840	0
3	198891	860	0
3	204101	880	0
3	209349	900	0
3	214698	920	0
3	220057	940	0
3	225382	960	0
3	230518	980	1
3	235893	1000	0
3	241222	1020	0
3	246545	1040	0
3	251906	1060	0
3	257277	1080	2
3	262665	1100	0
3	268030	1120	0
3	273346	1140	1
3	278573	1160	0
3	283859	1180	1
3	289168	1200	0
3	294352	1220	0
3	299598	1240	0
3	305028	1260	1
3	310431	1280	0
3	315721	1300	2
3	321046	1320	1
3	326343	1340	0
3	331719	1360	0
3	337003	1380	0
3	342359	1400	1
3	347655	1420	1
3	352974	1440	0
3	358311	1460	1
3	363729	1480	0
3	369019	1500	1
3	374233	1520	0
3	379567	1540	1
3	384893	1560	0
3	390271	1580	0
3	395583	1600	0
3	400967	1620	0
3	406319	1640	0
3	411680	1660	2
3	416997	1680	0
3	422247	1700	0
3	427512	1720	0
3	432892	1740	0
3	438168	1760	0
3	443555	1780	0
3	448921	1800	0
3	453826	1820	0
3	458051	1840	1
3	461850	1860	0
3	465178	1880	0
3	468055	1900	0
3	470600	1920	0
3	472634	1940	0
3	474232	1960	0
3	475244	1980	0
3	475830	2000	0
4	34591	240	10
4	39843	260	23
4	45196	280	17
4	50357	300	21
4	55566	320	25
4	61025	340	21
4	66427	360	29
4	71768	380	21
4	77044	400	13
4	82264	420	27
4	87544	440	27
4	92911	460	12
4	98178	480	20
4	103501	500	29
4	108859	520	31
4	114125	540	22
4	119288	560	17
4	124568	580	17
4	129968	600	31
4	135217	620	21
4	140425	640	19
4	145654	660	29
4	151044	680	21
4	156360	700	19
4	161703	720	22
4	167050	740	31
4	172276	760	25
4	177589	780	20
4	183015	800	22
4	188364	820	21
4	193649	840	24
4	198891	860	24
4	204101	880	32
4	209349	900	29
4	214698	920	23
4	220057	940	35
4	225382	960	24
4	230518	980	15
4	235893	1000	17
4	241222	1020	24
4	246545	1040	17
4	251906	1060	25
4	257277	1080	27
4	262665	1100	19
4	268030	1120	23
4	273346	1140	16
4	278573	1160	24
4	283859	1180	24
4	289168	1200	23
4	294352	1220	29
4	299598	1240	22
4	305028	1260	25
4	310431	1280	21
4	315721	1300	12
4	321046	1320	19
4	326343	1340	33
4	331719	1360	38
4	337003	1380	27
4	342359	1400	25
4	347655	1420	27
4	352974	1440	28
4	358311	1460	16
4	363729	1480	32
4	369019	1500	32
4	374233	1520	21
4	379567	1540	25
4	384893	1560	25
4	390271	1580	28
4	395583	1600	22
4	400967	1620	25
4	406319	1640	21
4	411680	1660	27
4	416997	1680	32
4	422247	1700	20
4	427512	1720	20
4	432892	1740	29
4	438168	1760	32
4	443555	1780	26
4	448921	1800	18
4	453826	1820	23
4	458051	1840	22
4	461850	1860	14
4	465178	1880	24
4	468055	1900	11
4	470600	1920	18
4	472634	1940	13
4	474232	1960	4
4	475244	1980	10
4	475830	2000	7
5	34591	240	2.25
5	39843	260	1.6666666666667
5	45196	280	2.6666666666667
5	50357	300	2
5	55566	320	2.75
5	61025	340	3
5	66427	360	2.3333333333333
5	71768	380	1.8333333333333
5	77044	400	2.7142857142857
5	82264	420	2.25
5	87544	440	2
5	92911	460	3
5	98178	480	2.1666666666667
5	103501	500	2.3333333333333
5	108859	520	2
5	114125	540	2
5	119288	560	2.6666666666667
5	124568	580	2.1428571428571
5	129968	600	1.6666666666667
5	135217	620	2
5	140425	640	2.8
5	145654	660	2.3333333333333
5	151044	680	2.8
5	156360	700	2
5	161703	720	3.25
5	167050	740	1.5
5	172276	760	3
5	177589	780	3
5	183015	800	2.8
5	188364	820	2.8
5	193649	840	2.75
5	198891	860	2.75
5	204101	880	1
5	209349	900	4
5	214698	920	2.4
5	220057	940	4
5	225382	960	2.2
5	230518	980	2.8333333333333
5	235893	1000	2.4285714285714
5	241222	1020	2.4
5	246545	1040	2.4285714285714
5	251906	1060	2.75
5	257277	1080	2.3333333333333
5	262665	1100	3.2
5	268030	1120	3
5	273346	1140	3.6
5	278573	1160	3
5	283859	1180	2.5
5	289168	1200	2.4
5	294352	1220	1.5
5	299598	1240	3.5
5	305028	1260	2.75
5	310431	1280	2.3333333333333
5	315721	1300	2.25
5	321046	1320	1.8571428571429
5	326343	1340	2.5
5	331719	1360	2
5	337003	1380	3
5	342359	1400	3.6666666666667
5	347655	1420	1.6
5	352974	1440	3.3333333333333
5	358311	1460	2.8333333333333
5	363729	1480	3
5	369019	1500	2.5
5	374233	1520	3.5
5	379567	1540	2.5
5	384893	1560	2.5
5	390271	1580	5
5	395583	1600	3.75
5	400967	1620	1.8
5	406319	1640	2.8
5	411680	1660	2.6666666666667
5	416997	1680	3.5
5	422247	1700	2.5
5	427512	1720	2.3333333333333
5	432892	1740	1.75
5	438168	1760	1.6666666666667
5	443555	1780	3.6666666666667
5	448921	1800	2.2857142857143
5	453826	1820	1.8
5	458051	1840	1.75
5	461850	1860	2.4
5	465178	1880	2
5	468055	1900	1.6
5	470600	1920	2
5	472634	1940	3
5	474232	1960	2
5	475244	1980	nan
5	475830	2000	nan
6	34591	240	0.70710678118655
6	39843	260	0.81649658092773
6	45196	280	2.1602468994693
6	50357	300	1.549193338483
6	55566	320	2.2173557826083
6	61025	340	1.5811388300842
6	66427	360	2.3094010767585
6	71768	380	0.75277265270908
6	77044	400	1.7043362064927
6	82264	420	0.5
6	87544	440	1.4142135623731
6	92911	460	1.6329931618555
6	98178	480	1.16904519445
6	103501	500	0.57735026918963
6	108859	520	0
6	114125	540	0.89442719099992
6	119288	560	2.875181153713
6	124568	580	1.2149857925879
6	129968	600	0.57735026918963
6	135217	620	0.89442719099992
6	140425	640	1.7888543819998
6	145654	660	2.3094010767585
6	151044	680	1.3038404810405
6	156360	700	0.57735026918963
6	161703	720	1.2583057392118
6	167050	740	0.57735026918963
6	172276	760	1.4142135623731
6	177589	780	2.9154759474227
6	183015	800	0.83666002653408
6	188364	820	1.3038404810405
6	193649	840	0.5
6	198891	860	2.872281323269
6	204101	880	0
6	209349	900	2.8284271247462
6	214698	920	1.6733200530682
6	220057	940	nan
6	225382	960	1.3038404810405
6	230518	980	2.6394443859772
6	235893	1000	1.7182493859684
6	241222	1020	0.89442719099992
6	246545	1040	1.6183471874254
6	251906	1060	1.7078251276599
6	257277	1080	0.57735026918963
6	262665	1100	2.1679483388679
6	268030	1120	2.7080128015453
6	273346	1140	1.8165902124585
6	278573	1160	2.4494897427832
6	283859	1180	1.2909944487358
6	289168	1200	3.1304951684997
6	294352	1220	0.57735026918963
6	299598	1240	1.7320508075689
6	305028	1260	1.2583057392118
6	310431	1280	1.5055453054182
6	315721	1300	0.88640526042792
6	321046	1320	0.69006555934235
6	326343	1340	0.70710678118655
6	331719	1360	nan
6	337003	1380	2.6457513110646
6	342359	1400	2.0816659994661
6	347655	1420	0.89442719099992
6	352974	1440	2.3094010767585
6	358311	1460	1.8348478592697
6	363729	1480	0
6	369019	1500	2.1213203435596
6	374233	1520	2.3804761428476
6	379567	1540	1.2909944487358
6	384893	1560	1.7320508075689
6	390271	1580	4.2426406871193
6	395583	1600	1.7078251276599
6	400967	1620	1.0954451150103
6	406319	1640	1.9235384061671
6	411680	1660	1.5275252316519
6	416997	1680	3.5355339059327
6	422247	1700	1.378404875209
6	427512	1720	2.3380903889
6	432892	1740	0.5
6	438168	1760	0.57735026918963
6	443555	1780	1.1547005383793
6	448921	1800	1.3801311186847
6	453826	1820	1.0954451150103
6	458051	1840	0.5
6	461850	1860	1.1401754250991
6	465178	1880	nan
6	468055	1900	0.54772255750517
6	470600	1920	nan
6	472634	1940	nan
6	474232	1960	0
6	475244	1980	nan
6	475830	2000	nan
7	34591	240	0.5
7	39843	260	0.66666666666667
7	45196	280	4.6666666666667
7	50357	300	2.4
7	55566	320	4.9166666666667
7	61025	340	2.5
7	66427	360	5.3333333333333
7	71768	380	0.56666666666667
7	77044	400	2.9047619047619
7	82264	420	0.25
7	87544	440	2
7	92911	460	2.6666666666667
7	98178	480	1.3666666666667
7	103501	500	0.33333333333333
7	108859	520	0
7	114125	540	0.8
7	119288	560	8.2666666666667
7	124568	580	1.4761904761905
7	129968	600	0.33333333333333
7	135217	620	0.8
7	140425	640	3.2
7	145654	660	5.3333333333333
7	151044	680	1.7
7	156360	700	0.33333333333333
7	161703	720	1.5833333333333
7	167050	740	0.33333333333333
7	172276	760	2
7	177589	780	8.5
7	183015	800	0.7
7	188364	820	1.7
7	193649	840	0.25
7	198891	860	8.25
7	204101	880	0
7	209349	900	8
7	214698	920	2.8
7	220057	940	nan
7	225382	960	1.7
7	230518	980	6.9666666666667
7	235893	1000	2.952380952381
7	241222	1020	0.8
7	246545	1040	2.6190476190476
7	251906	1060	2.9166666666667
7	257277	1080	0.33333333333333
7	262665	1100	4.7
7	268030	1120	7.3333333333333
7	273346	1140	3.3
7	278573	1160	6
7	283859	1180	1.6666666666667
7	289168	1200	9.8
7	294352	1220	0.33333333333333
7	299598	1240	3
7	305028	1260	1.5833333333333
7	310431	1280	2.2666666666667
7	315721	1300	0.78571428571429
7	321046	1320	0.47619047619048
7	326343	1340	0.5
7	331719	1360	nan
7	337003	1380	7
7	342359	1400	4.3333333333333
7	347655	1420	0.8
7	352974	1440	5.3333333333333
7	358311	1460	3.3666666666667
7	363729	1480	0
7	369019	1500	4.5
7	374233	1520	5.6666666666667
7	379567	1540	1.6666666666667
7	384893	1560	3
7	390271	1580	18
7	395583	1600	2.9166666666667
7	400967	1620	1.2
7	406319	1640	3.7
7	411680	1660	2.3333333333333
7	416997	1680	12.5
7	422247	1700	1.9
7	427512	1720	5.4666666666667
7	432892	1740	0.25
7	438168	1760	0.33333333333333
7	443555	1780	1.3333333333333
7	448921	1800	1.9047619047619
7	453826	1820	1.2
7	458051	1840	0.25
7	461850	1860	1.3
7	465178	1880	nan
7	468055	1900	0.3
7	470600	1920	nan
7	472634	1940	nan
7	474232	1960	0
7	475244	1980	nan
7	475830	2000	nan
8	34591	240	9.025641025641
8	39843	260	9.1538461538462
8	45196	280	8.975
8	50357	300	9.025641025641
8	55566	320	9
8	61025	340	8.8780487804878
8	66427	360	9
8	71768	380	9.2564102564103
8	77044	400	8.9487179487179
8	82264	420	8.875
8	87544	440	8.8292682926829
8	92911	460	9
8	98178	480	9.025641025641
8	103501	500	8.95
8	108859	520	8.925
8	114125	540	8.75
8	119288	560	9
8	124568	580	8.775
8	129968	600	9.2307692307692
8	135217	620	8.825
8	140425	640	8.6923076923077
8	145654	660	9
8	151044	680	8.7317073170732
8	156360	700	8.9024390243902
8	161703	720	8.975
8	167050	740	9.0487804878049
8	172276	760	8.6829268292683
8	177589	780	8.8292682926829
8	183015	800	8.8780487804878
8	188364	820	9.225
8	193649	840	9
8	198891	860	8.9230769230769
8	204101	880	8.725
8	209349	900	9.1538461538462
8	214698	920	9.2
8	220057	940	8.925
8	225382	960	8.95
8	230518	980	8.8461538461538
8	235893	1000	8.6829268292683
8	241222	1020	8.8292682926829
8	246545	1040	8.6341463414634
8	251906	1060	8.95
8	257277	1080	9.0512820512821
8	262665	1100	9.225
8	268030	1120	9.1538461538462
8	273346	1140	9.225
8	278573	1160	8.8
8	283859	1180	8.8461538461538
8	289168	1200	8.775
8	294352	1220	8.8717948717949
8	299598	1240	9
8	305028	1260	8.9024390243902
8	310431	1280	9.2682926829268
8	315721	1300	8.875
8	321046	1320	9.225
8	326343	1340	8.75
8	331719	1360	8.8292682926829
8	337003	1380	9.1025641025641
8	342359	1400	8.75
8	347655	1420	8.8780487804878
8	352974	1440	8.8536585365854
8	358311	1460	8.975
8	363729	1480	8.925
8	369019	1500	9.05
8	374233	1520	9.1025641025641
8	379567	1540	9.1
8	384893	1560	9.3589743589744
8	390271	1580	9
8	395583	1600	8.7560975609756
8	400967	1620	9.1538461538462
8	406319	1640	9.075
8	411680	1660	8.825
8	416997	1680	8.780487804878
8	422247	1700	8.7560975609756
8	427512	1720	8.975
8	432892	1740	8.95
8	438168	1760	9.05
8	443555	1780	9.075
8	448921	1800	8.9512195121951
8	453826	1820	8.7837837837838
8	458051	1840	8.1764705882353
8	461850	1860	8.3225806451613
8	465178	1880	8.2592592592593
8	468055	1900	8.2083333333333
8	470600	1920	8.1904761904762
8	472634	1940	8.3529411764706
8	474232	1960	7.6153846153846
8	475244	1980	6.4
8	475830	2000	5
9	34591	240	1.8846635814157
9	39843	260	1.5310550462527
9	45196	280	2.0316407415102
9	50357	300	1.5974845273475
9	55566	320	1.2194996872404
9	61025	340	1.989913590476
9	66427	360	2.3858557568109
9	71768	380	1.2078242447508
9	77044	400	1.6535244328199
9	82264	420	1.6974717247749
9	87544	440	1.6416826585
9	92911	460	1.5525000516124
9	98178	480	1.7089113106731
9	103501	500	1.4491376746189
9	108859	520	1.8589699381026
9	114125	540	1.877669040497
9	119288	560	1.5727950313141
9	124568	580	1.5930538323674
9	129968	600	1.3270770901643
9	135217	620	1.6623662467885
9	140425	640	1.7940522516865
9	145654	660	1.468977445995
9	151044	680	2.2251335942354
9	156360	700	1.7720733343852
9	161703	720	1.8325756009871
9	167050	740	1.9993901509235
9	172276	760	1.6192440271658
9	177589	780	1.7592958680164
9	183015	800	2.2044854496143
9	188364	820	1.4230249470758
9	193649	840	1.3572417850766
9	198891	860	1.5110925880688
9	204101	880	1.6792473894194
9	209349	900	1.5310550462527
9	214698	920	1.6976605320415
9	220057	940	1.6700606468337
9	225382	960	1.5182648665922
9	230518	980	1.5310550462527
9	235893	1000	2.1844796221325
9	241222	1020	1.8289674549372
9	246545	1040	2.1535563326853
9	251906	1060	1.9074751737471
9	257277	1080	1.6375321282299
9	262665	1100	1.7169964831289
9	268030	1120	1.6147097105649
9	273346	1140	1.7901081474277
9	278573	1160	1.6824889987067
9	283859	1180	1.4785921742704
9	289168	1200	1.5440124218977
9	294352	1220	1.7041665223101
9	299598	1240	1.8810798862519
9	305028	1260	2.0224351417138
9	310431	1280	2.1450453403588
9	315721	1300	1.4176090379986
9	321046	1320	1.5768761719103
9	326343	1340	1.4632243987255
9	331719	1360	1.9222699995629
9	337003	1380	1.5182204228509
9	342359	1400	2.0847431127489
9	347655	1420	1.5523389119522
9	352974	1440	2.0440275879958
9	358311	1460	1.8185299783208
9	363729	1480	1.9267017120404
9	369019	1500	1.1972189997379
9	374233	1520	1.3725671643977
9	379567	1540	1.1723305738396
9	384893	1560	1.6138737230843
9	390271	1580	1.8536173919926
9	395583	1600	2.2223915924616
9	400967	1620	1.5983290870297
9	406319	1640	1.7004901254246
9	411680	1660	1.9596899283776
9	416997	1680	1.6509420813879
9	422247	1700	1.9720609499313
9	427512	1720	1.5930538323674
9	432892	1740	1.9208705291465
9	438168	1760	1.5182648665922
9	443555	1780	1.6233472857822
9	448921	1800	1.7457264893476
9	453826	1820	1.3567758992703
9	458051	1840	1.6782131232318
9	461850	1860	1.423308277083
9	465178	1880	1.6546575893192
9	468055	1900	2.0211741457718
9	470600	1920	1.806074406525
9	472634	1940	1.6934128435864
9	474232	1960	1.6602440351979
9	475244	1980	1.0749676997731
9	475830	2000	1
10	34591	240	3.5519568151147
10	39843	260	2.3441295546559
10	45196	280	4.1275641025641
10	50357	300	2.5519568151147
10	55566	320	1.4871794871795
10	61025	340	3.959756097561
10	66427	360	5.6923076923077
10	71768	380	1.4588394062078
10	77044	400	2.7341430499325
10	82264	420	2.8814102564103
10	87544	440	2.6951219512195
10	92911	460	2.4102564102564
10	98178	480	2.9203778677463
10	103501	500	2.1
10	108859	520	3.4557692307692
10	114125	540	3.525641025641
10	119288	560	2.4736842105263
10	124568	580	2.5378205128205
10	129968	600	1.7611336032389
10	135217	620	2.7634615384615
10	140425	640	3.2186234817814
10	145654	660	2.1578947368421
10	151044	680	4.9512195121951
10	156360	700	3.140243902439
10	161703	720	3.3583333333333
10	167050	740	3.9975609756098
10	172276	760	2.6219512195122
10	177589	780	3.0951219512195
10	183015	800	4.859756097561
10	188364	820	2.025
10	193649	840	1.8421052631579
10	198891	860	2.2834008097166
10	204101	880	2.8198717948718
10	209349	900	2.3441295546559
10	214698	920	2.8820512820513
10	220057	940	2.7891025641026
10	225382	960	2.3051282051282
10	230518	980	2.3441295546559
10	235893	1000	4.7719512195122
10	241222	1020	3.3451219512195
10	246545	1040	4.6378048780488
10	251906	1060	3.6384615384615
10	257277	1080	2.6815114709852
10	262665	1100	2.9480769230769
10	268030	1120	2.6072874493927
10	273346	1140	3.2044871794872
10	278573	1160	2.8307692307692
10	283859	1180	2.1862348178138
10	289168	1200	2.3839743589744
10	294352	1220	2.9041835357625
10	299598	1240	3.5384615384615
10	305028	1260	4.090243902439
10	310431	1280	4.6012195121951
10	315721	1300	2.0096153846154
10	321046	1320	2.4865384615385
10	326343	1340	2.1410256410256
10	331719	1360	3.6951219512195
10	337003	1380	2.3049932523617
10	342359	1400	4.3461538461538
10	347655	1420	2.409756097561
10	352974	1440	4.1780487804878
10	358311	1460	3.3070512820513
10	363729	1480	3.7121794871795
10	369019	1500	1.4333333333333
10	374233	1520	1.8839406207827
10	379567	1540	1.374358974359
10	384893	1560	2.6045883940621
10	390271	1580	3.4358974358974
10	395583	1600	4.9390243902439
10	400967	1620	2.5546558704453
10	406319	1640	2.8916666666667
10	411680	1660	3.8403846153846
10	416997	1680	2.7256097560976
10	422247	1700	3.8890243902439
10	427512	1720	2.5378205128205
10	432892	1740	3.6897435897436
10	438168	1760	2.3051282051282
10	443555	1780	2.6352564102564
10	448921	1800	3.0475609756098
10	453826	1820	1.8408408408408
10	458051	1840	2.8163992869875
10	461850	1860	2.0258064516129
10	465178	1880	2.7378917378917
10	468055	1900	4.0851449275362
10	470600	1920	3.2619047619048
10	472634	1940	2.8676470588235
10	474232	1960	2.7564102564103
10	475244	1980	1.1555555555556
10	475830	2000	1
11	34591	240	371.33537949143
11	39843	260	277.30559872564
11	45196	280	284.09255502017
11	50357	300	279.05245308536
11	55566	320	184.23360800113
11	61025	340	231.09110232118
11	66427	360	141.51035607241
11	71768	380	284.49970183429
11	77044	400	329.65503487132
11	82264	420	181.18111099956
11	87544	440	183.14265141034
11	92911	460	323.86649306325
11	98178	480	274.50949356296
11	103501	500	136.73531888417
11	108859	520	137.74022411141
11	114125	540	276.41160493874
11	119288	560	272.42455702243
11	124568	580	325.37336675213
11	129968	600	136.59450630008
11	135217	620	278.47164020781
11	140425	640	228.21853196589
11	145654	660	137.08322051214
11	151044	680	230.2675032829
11	156360	700	321.51482727215
11	161703	720	184.10787869252
11	167050	740	188.94424618903
11	172276	760	186.41331382666
11	177589	780	227.05251302178
11	183015	800	230.88096623973
11	188364	820	235.90956783597
11	193649	840	186.31095423368
11	198891	860	185.40783933095
11	204101	880	188.38723460088
11	209349	900	91.602833072068
11	214698	920	234.39052883394
11	220057	940	46.438091373798
11	225382	960	232.39882329843
11	230518	980	274.27937065093
11	235893	1000	323.24813507938
11	241222	1020	232.8366384521
11	246545	1040	321.56849023568
11	251906	1060	186.36706389707
11	257277	1080	136.9798536622
11	262665	1100	229.50267633683
11	268030	1120	185.73747459009
11	273346	1140	229.67454035007
11	278573	1160	187.78371882921
11	283859	1180	181.42232981118
11	289168	1200	233.87233528731
11	294352	1220	189.68847674337
11	299598	1240	177.66954850318
11	305028	1260	187.14312046155
11	310431	1280	275.96924966284
11	315721	1300	369.66917283045
11	321046	1320	325.74158797792
11	326343	1340	90.326813580729
11	331719	1360	45.890644579688
11	337003	1380	135.03697032843
11	342359	1400	138.77130456702
11	347655	1420	232.32545913403
11	352974	1440	137.57932374491
11	358311	1460	275.21954965401
11	363729	1480	92.087382249868
11	369019	1500	91.187087783509
11	374233	1520	182.64988175233
11	379567	1540	188.90339092184
11	384893	1560	184.38590290955
11	390271	1580	92.569341125435
11	395583	1600	183.89645096343
11	400967	1620	230.94720348573
11	406319	1640	235.28313790309
11	411680	1660	137.21408004635
11	416997	1680	94.206567729761
11	422247	1700	276.71640150348
11	427512	1720	273.4460325285
11	432892	1740	182.46853135032
11	438168	1760	138.01106198389
11	443555	1780	135.30687408699
11	448921	1800	321.20732773771
11	453826	1820	237.31953787111
11	458051	1840	182.96947226811
11	461850	1860	232.70963925851
11	465178	1880	45.972262365653
11	468055	1900	230.35212247214
11	470600	1920	46.605250434531
11	472634	1940	46.325589889576
11	474232	1960	144.55654418626
11	475244	1980	0
11	475830	2000	0
12	34591	240	46.416922436428
12	39843	260	46.217599787606
12	45196	280	47.348759170029
12	50357	300	46.508742180894
12	55566	320	46.058402000283
12	61025	340	46.218220464236
12	66427	360	47.170118690803
12	71768	380	47.416616972381
12	77044	400	47.093576410188
12	82264	420	45.295277749891
12	87544	440	45.785662852586
12	92911	460	46.266641866179
12	98178	480	45.751582260493
12	103501	500	45.578439628056
12	108859	520	45.913408037138
12	114125	540	46.068600823123
12	119288	560	45.404092837071
12	124568	580	46.481909536019
12	129968	600	45.531502100028
12	135217	620	46.411940034635
12	140425	640	45.643706393178
12	145654	660	45.694406837378
12	151044	680	46.05350065658
12	156360	700	45.930689610307
12	161703	720	46.02696967313
12	167050	740	47.236061547256
12	172276	760	46.603328456664
12	177589	780	45.410502604356
12	183015	800	46.176193247946
12	188364	820	47.181913567194
12	193649	840	46.57773855842
12	198891	860	46.351959832737
12	204101	880	47.096808650219
12	209349	900	45.801416536034
12	214698	920	46.878105766789
12	220057	940	46.438091373798
12	225382	960	46.479764659686
12	230518	980	45.713228441821
12	235893	1000	46.17830501134
12	241222	1020	46.567327690421
12	246545	1040	45.938355747955
12	251906	1060	46.591765974268
12	257277	1080	45.659951220733
12	262665	1100	45.900535267366
12	268030	1120	46.434368647523
12	273346	1140	45.934908070014
12	278573	1160	46.945929707303
12	283859	1180	45.355582452795
12	289168	1200	46.774467057462
12	294352	1220	47.422119185842
12	299598	1240	44.417387125794
12	305028	1260	46.785780115388
12	310431	1280	45.994874943807
12	315721	1300	46.208646603806
12	321046	1320	46.534512568274
12	326343	1340	45.163406790364
12	331719	1360	45.890644579688
12	337003	1380	45.01232344281
12	342359	1400	46.257101522339
12	347655	1420	46.465091826807
12	352974	1440	45.859774581637
12	358311	1460	45.869924942335
12	363729	1480	46.043691124934
12	369019	1500	45.593543891755
12	374233	1520	45.662470438083
12	379567	1540	47.22584773046
12	384893	1560	46.096475727387
12	390271	1580	46.284670562718
12	395583	1600	45.974112740858
12	400967	1620	46.189440697147
12	406319	1640	47.056627580617
12	411680	1660	45.738026682115
12	416997	1680	47.10328386488
12	422247	1700	46.11940025058
12	427512	1720	45.57433875475
12	432892	1740	45.617132837581
12	438168	1760	46.003687327962
12	443555	1780	45.10229136233
12	448921	1800	45.886761105387
12	453826	1820	47.463907574221
12	458051	1840	45.742368067027
12	461850	1860	46.541927851702
12	465178	1880	45.972262365653
12	468055	1900	46.070424494429
12	470600	1920	46.605250434531
12	472634	1940	46.325589889576
12	474232	1960	48.185514728752
12	475244	1980	nan
12	475830	2000	nan
13	34591	240	0.90786785754747
13	39843	260	0.69921833153246
13	45196	280	2.0941619961965
13	50357	300	1.6232914973603
13	55566	320	1.3887821444152
13	61025	340	1.805554539917
13	66427	360	1.3738152851081
13	71768	380	2.3966824862905
13	77044	400	2.6174493691378
13	82264	420	0.23768074963245
13	87544	440	0.62743517205007
13	92911	460	1.484774665831
13	98178	480	0.66782260923809
13	103501	500	0.51935851676897
13	108859	520	0.6981412619952
13	114125	540	1.6456396044644
13	119288	560	2.7214305884215
13	124568	580	1.9401972667351
13	129968	600	2.1415794636755
13	135217	620	1.6094942302051
13	140425	640	1.5495116222103
13	145654	660	1.0563738819245
13	151044	680	1.0929509090121
13	156360	700	1.9212034692589
13	161703	720	1.0023967787235
13	167050	740	1.0380266499424
13	172276	760	1.7021747715281
13	177589	780	0.69060211417875
13	183015	800	0.67993778658522
13	188364	820	2.5474992203702
13	193649	840	1.1223764218335
13	198891	860	0.78591417975496
13	204101	880	3.1461192847042
13	209349	900	0.53767924542784
13	214698	920	2.0542610943469
13	220057	940	nan
13	225382	960	2.0650153046942
13	230518	980	0.91361109871905
13	235893	1000	1.1698908622213
13	241222	1020	1.1833816716004
13	246545	1040	0.8960647323218
13	251906	1060	0.8596354998974
13	257277	1080	0.34168117303197
13	262665	1100	1.0320575206841
13	268030	1120	1.2821461775966
13	273346	1140	1.9680094019314
13	278573	1160	3.2857375116214
13	283859	1180	1.4756915915192
13	289168	1200	1.4795084496307
13	294352	1220	2.1418115294798