file 72661 1427451048                                           
version 2
run statisticRVV-152-20150327-08:57:06-6864
attr c 9
attr configname statisticRVV
attr datetime 20150327-08:57:06
attr experiment statisticRVV
attr inifile omnetpp.ini
attr iterationvars "$sc=\"erlangen-medium.launchd.xml\", $p=1/10, $c=9"
attr iterationvars2 "$sc=\"erlangen-medium.launchd.xml\", $p=1/10, $c=9, $repetition=2"
attr measurement "$sc=\"erlangen-medium.launchd.xml\", $p=1/10, $c=9"
attr network RSUExampleScenario
attr p 1/10
attr processid 6864
attr repetition 2
attr replication #2
attr resultdir results
attr runnumber 152
attr sc "\"erlangen-medium.launchd.xml\""
attr seedset 152

vector 0  RSUExampleScenario.rsu[0].appl  Number_CH  ETV
vector 1  RSUExampleScenario.rsu[0].appl  Number_ON  ETV
vector 2  RSUExampleScenario.rsu[0].appl  Number_FN  ETV
vector 3  RSUExampleScenario.rsu[0].appl  Number_CH_Losts  ETV
vector 4  RSUExampleScenario.rsu[0].appl  Number_CH_Losts  ETV
vector 5  RSUExampleScenario.rsu[0].appl  Mean_Cluster_Size  ETV
vector 6  RSUExampleScenario.rsu[0].appl  StdDev_Cluster_Size  ETV
vector 7  RSUExampleScenario.rsu[0].appl  Variance_Cluster_Size  ETV
vector 8  RSUExampleScenario.rsu[0].appl  Mean_Neighbors  ETV
vector 9  RSUExampleScenario.rsu[0].appl  StdDev_Neighbors  ETV
vector 10  RSUExampleScenario.rsu[0].appl  Variance_Neighbors  ETV
vector 11  RSUExampleScenario.rsu[0].appl  Total_CH_Utility  ETV
vector 12  RSUExampleScenario.rsu[0].appl  Mean_CH_Utility  ETV
vector 13  RSUExampleScenario.rsu[0].appl  StdDev_CH_Utility  ETV
vector 14  RSUExampleScenario.rsu[0].appl  Variance_CH_Utility  ETV
vector 15  RSUExampleScenario.rsu[0].appl  Total_exp_CH_Utility  ETV
vector 16  RSUExampleScenario.rsu[0].appl  Mean_exp_CH_Utility  ETV
vector 17  RSUExampleScenario.rsu[0].appl  StdDev_exp_CH_Utility  ETV
vector 18  RSUExampleScenario.rsu[0].appl  Variance_exp_CH_Utility  ETV
vector 19  RSUExampleScenario.rsu[0].appl  Total_ON_Utility  ETV
vector 20  RSUExampleScenario.rsu[0].appl  Mean_ON_Utility  ETV
vector 21  RSUExampleScenario.rsu[0].appl  StdDev_ON_Utility  ETV
vector 22  RSUExampleScenario.rsu[0].appl  Variance_ON_Utility  ETV
vector 23  RSUExampleScenario.rsu[0].appl  Total_exp_ON_Utility  ETV
vector 24  RSUExampleScenario.rsu[0].appl  Mean_exp_ON_Utility  ETV
vector 25  RSUExampleScenario.rsu[0].appl  StdDev_exp_ON_Utility  ETV
vector 26  RSUExampleScenario.rsu[0].appl  Variance_exp_ON_Utility  ETV
0	2434 1604 144958 7036332 240 2000 89 4 29 1281 21235
1	4038 1663 144958 7036332 240 2000 89 36 152 8198 834766
2	5701 1624 144958 7036332 240 2000 89 5 86 2993 121751
3	7325 1537 144958 7036332 240 2000 89 0 2 26 32
4	8862 1623 144958 7036332 240 2000 89 4 86 2956 119310
5	10485 2443 144958 7036332 240 2000 89 5.0588235294118 9 589.80518033961 3976.1930619889
6	12928 2761 144958 7036332 240 2000 89 0 3.1806707887907 183.96442090294 415.12378548844
7	15689 2678 144958 7036332 240 2000 89 0 10.116666666667 415.12378548844 2381.7949611103
8	18367 2699 144958 7036332 240 2000 89 21.989583333333 61.505102040816 3368.5033257563 142517.48445605
9	21066 2776 144958 7036332 240 2000 89 3.3920994406876 31.400470209234 1382.6789590971 29953.190601866
10	23842 2864 144958 7036332 240 2000 89 11.506338615513 985.98952936097 29953.190601866 19799963.729791
11	26706 2865 144958 7036332 240 2000 89 190.08317086649 1426.5934286118 61658.800169203 49593839.169168
12	29571 2862 144958 7036332 240 2000 89 45.176748119858 49.377348459343 4260.4618380236 204019.46793406
13	32433 2857 144958 7036332 240 2000 89 0.38409389671466 3.3512737281307 168.18734649666 339.72571411872
14	35290 2860 144958 7036332 240 2000 89 0.14752812149345 11.231035600859 339.72571411872 1596.2743110338
15	38150 2864 144958 7036332 240 2000 89 181.17901613971 1366.8655285259 59576.614411423 45792765.30623
16	41014 2862 144958 7036332 240 2000 89 44.448419387607 46.333985832162 4052.9315038237 184575.21953973
17	43876 2900 144958 7036332 240 2000 89 0.2226980851201 2.0154865076697 88.327202748327 97.419984100534
18	46776 2913 144958 7036332 240 2000 89 0.049594437116159 4.0621858625987 97.419984100534 151.47668002965
19	49689 2864 144958 7036332 240 2000 89 1678.7937778379 7455.3686060788 393543.93524034 1936582812.6022
20	52553 2861 144958 7036332 240 2000 89 45.372804806428 49.347816417732 4253.5517119548 203347.58740284
21	55414 2859 144958 7036332 240 2000 89 1.5330568815856 3.4557865588143 238.49963836576 652.46506411584
22	58273 2857 144958 7036332 240 2000 89 2.350263402177 11.942460740081 652.46506411584 5129.4940650671
23	61130 2864 144958 7036332 240 2000 89 3178.5065124569 7883.4548665358 508151.81299296 3043023777.5636
24	63994 2860 144958 7036332 240 2000 89 44.767697358548 45.783580623698 4051.9934864189 184483.5801282
25	66854 2900 144958 7036332 240 2000 89 0.40233019697781 1.4782210613374 91.664889995056 98.245627146718
26	69754 2907 144958 7036332 240 2000 89 0.16186958740021 2.1851375061816 98.245627146718 123.7372845147
