version 2
run statisticRVV-80-20150325-03:26:49-8668
attr c 9
attr configname statisticRVV
attr datetime 20150325-03:26:49
attr experiment statisticRVV
attr inifile omnetpp.ini
attr iterationvars "$sc=\"erlangen-low.launchd.xml\", $p=1/8, $c=9"
attr iterationvars2 "$sc=\"erlangen-low.launchd.xml\", $p=1/8, $c=9, $repetition=0"
attr measurement "$sc=\"erlangen-low.launchd.xml\", $p=1/8, $c=9"
attr network RSUExampleScenario
attr p 1/8
attr processid 8668
attr repetition 0
attr replication #0
attr resultdir results
attr runnumber 80
attr sc "\"erlangen-low.launchd.xml\""
attr seedset 80

vector 0  RSUExampleScenario.rsu[0].appl  Number_CH  ETV
vector 1  RSUExampleScenario.rsu[0].appl  Number_ON  ETV
vector 2  RSUExampleScenario.rsu[0].appl  Number_FN  ETV
vector 3  RSUExampleScenario.rsu[0].appl  Number_CH_Losts  ETV
vector 4  RSUExampleScenario.rsu[0].appl  Mean_Cluster_Size  ETV
vector 5  RSUExampleScenario.rsu[0].appl  StdDev_Cluster_Size  ETV
vector 6  RSUExampleScenario.rsu[0].appl  Variance_Cluster_Size  ETV
vector 7  RSUExampleScenario.rsu[0].appl  Mean_Neighbors  ETV
vector 8  RSUExampleScenario.rsu[0].appl  StdDev_Neighbors  ETV
vector 9  RSUExampleScenario.rsu[0].appl  Variance_Neighbors  ETV
vector 10  RSUExampleScenario.rsu[0].appl  Total_CH_Utility  ETV
vector 11  RSUExampleScenario.rsu[0].appl  Mean_CH_Utility  ETV
vector 12  RSUExampleScenario.rsu[0].appl  StdDev_CH_Utility  ETV
vector 13  RSUExampleScenario.rsu[0].appl  Variance_CH_Utility  ETV
vector 14  RSUExampleScenario.rsu[0].appl  Total_exp_CH_Utility  ETV
vector 15  RSUExampleScenario.rsu[0].appl  Mean_exp_CH_Utility  ETV
vector 16  RSUExampleScenario.rsu[0].appl  StdDev_exp_CH_Utility  ETV
vector 17  RSUExampleScenario.rsu[0].appl  Variance_exp_CH_Utility  ETV
vector 18  RSUExampleScenario.rsu[0].appl  Total_ON_Utility  ETV
vector 19  RSUExampleScenario.rsu[0].appl  Mean_ON_Utility  ETV
vector 20  RSUExampleScenario.rsu[0].appl  StdDev_ON_Utility  ETV
vector 21  RSUExampleScenario.rsu[0].appl  Variance_ON_Utility  ETV
vector 22  RSUExampleScenario.rsu[0].appl  Total_exp_ON_Utility  ETV
vector 23  RSUExampleScenario.rsu[0].appl  Mean_exp_ON_Utility  ETV
vector 24  RSUExampleScenario.rsu[0].appl  StdDev_exp_ON_Utility  ETV
vector 25  RSUExampleScenario.rsu[0].appl  Variance_exp_ON_Utility  ETV
0	34335	240	3
0	39617	260	4
0	45041	280	0
0	50287	300	6
0	55563	320	4
0	60973	340	6
0	66292	360	5
0	71557	380	4
0	76951	400	4
0	82264	420	7
0	87629	440	5
0	92941	460	1
0	98310	480	4
0	103653	500	1
0	108996	520	8
0	114305	540	1
0	119587	560	5
0	124920	580	4
0	130255	600	4
0	135563	620	5
0	140831	640	2
0	146185	660	1
0	151487	680	2
0	156780	700	6
0	162184	720	4
0	167583	740	6
0	172833	760	7
0	178071	780	4
0	183333	800	5
0	188733	820	2
0	194029	840	2
0	199345	860	7
0	204631	880	6
0	209812	900	3
0	215114	920	2
0	220447	940	4
0	225806	960	3
0	231218	980	3
0	236543	1000	5
0	241964	1020	3
0	247256	1040	2
0	252496	1060	3
0	257818	1080	6
0	263116	1100	5
0	268421	1120	4
0	273689	1140	2
0	279109	1160	2
0	284352	1180	2
0	289610	1200	6
0	294888	1220	3
0	300179	1240	2
0	305376	1260	6
0	310709	1280	4
0	316031	1300	3
0	321301	1320	3
0	326663	1340	4
0	331977	1360	3
0	337224	1380	4
0	342551	1400	2
0	347819	1420	3
0	353081	1440	4
0	358384	1460	3
0	363772	1480	6
0	368930	1500	3
0	374226	1520	4
0	379500	1540	4
0	384695	1560	5
0	389968	1580	5
0	395238	1600	6
0	400579	1620	3
0	405879	1640	8
0	411257	1660	5
0	416584	1680	5
0	421856	1700	2
0	427124	1720	5
0	432381	1740	3
0	437766	1760	1
0	443103	1780	2
0	448407	1800	2
0	453308	1820	3
0	457570	1840	1
0	461329	1860	1
0	464680	1880	3
0	467585	1900	6
0	470118	1920	3
0	472148	1940	1
0	473745	1960	1
0	474804	1980	1
0	475359	2000	0
1	34335	240	3
1	39617	260	6
1	45041	280	0
1	50287	300	11
1	55563	320	6
1	60973	340	7
1	66292	360	6
1	71557	380	5
1	76951	400	7
1	82264	420	8
1	87629	440	6
1	92941	460	2
1	98310	480	6
1	103653	500	2
1	108996	520	8
1	114305	540	1
1	119587	560	7
1	124920	580	5
1	130255	600	5
1	135563	620	8
1	140831	640	2
1	146185	660	1
1	151487	680	4
1	156780	700	8
1	162184	720	4
1	167583	740	8
1	172833	760	9
1	178071	780	4
1	183333	800	7
1	188733	820	2
1	194029	840	2
1	199345	860	9
1	204631	880	7
1	209812	900	4
1	215114	920	3
1	220447	940	4
1	225806	960	3
1	231218	980	4
1	236543	1000	9
1	241964	1020	5
1	247256	1040	2
1	252496	1060	6
1	257818	1080	9
1	263116	1100	6
1	268421	1120	8
1	273689	1140	3
1	279109	1160	3
1	284352	1180	2
1	289610	1200	7
1	294888	1220	4
1	300179	1240	3
1	305376	1260	8
1	310709	1280	6
1	316031	1300	5
1	321301	1320	4
1	326663	1340	6
1	331977	1360	6
1	337224	1380	6
1	342551	1400	4
1	347819	1420	4
1	353081	1440	4
1	358384	1460	3
1	363772	1480	8
1	368930	1500	5
1	374226	1520	5
1	379500	1540	6
1	384695	1560	8
1	389968	1580	7
1	395238	1600	7
1	400579	1620	3
1	405879	1640	12
1	411257	1660	7
1	416584	1680	8
1	421856	1700	4
1	427124	1720	7
1	432381	1740	3
1	437766	1760	2
1	443103	1780	2
1	448407	1800	2
1	453308	1820	3
1	457570	1840	1
1	461329	1860	1
1	464680	1880	3
1	467585	1900	7
1	470118	1920	5
1	472148	1940	2
1	473745	1960	1
1	474804	1980	1
1	475359	2000	0
2	34335	240	33
2	39617	260	30
2	45041	280	41
2	50287	300	23
2	55563	320	30
2	60973	340	28
2	66292	360	30
2	71557	380	31
2	76951	400	31
2	82264	420	25
2	87629	440	29
2	92941	460	36
2	98310	480	30
2	103653	500	37
2	108996	520	25
2	114305	540	38
2	119587	560	29
2	124920	580	32
2	130255	600	30
2	135563	620	28
2	140831	640	36
2	146185	660	39
2	151487	680	35
2	156780	700	26
2	162184	720	33
2	167583	740	26
2	172833	760	25
2	178071	780	31
2	183333	800	28
2	188733	820	37
2	194029	840	36
2	199345	860	23
2	204631	880	27
2	209812	900	33
2	215114	920	37
2	220447	940	32
2	225806	960	35
2	231218	980	34
2	236543	1000	26
2	241964	1020	32
2	247256	1040	37
2	252496	1060	31
2	257818	1080	25
2	263116	1100	29
2	268421	1120	28
2	273689	1140	34
2	279109	1160	37
2	284352	1180	36
2	289610	1200	27
2	294888	1220	33
2	300179	1240	36
2	305376	1260	26
2	310709	1280	30
2	316031	1300	32
2	321301	1320	33
2	326663	1340	30
2	331977	1360	31
2	337224	1380	29
2	342551	1400	34
2	347819	1420	33
2	353081	1440	32
2	358384	1460	35
2	363772	1480	27
2	368930	1500	31
2	374226	1520	32
2	379500	1540	30
2	384695	1560	27
2	389968	1580	29
2	395238	1600	28
2	400579	1620	34
2	405879	1640	21
2	411257	1660	29
2	416584	1680	28
2	421856	1700	35
2	427124	1720	28
2	432381	1740	34
2	437766	1760	37
2	443103	1780	36
2	448407	1800	36
2	453308	1820	32
2	457570	1840	33
2	461329	1860	29
2	464680	1880	22
2	467585	1900	11
2	470118	1920	12
2	472148	1940	15
2	473745	1960	12
2	474804	1980	9
2	475359	2000	8
3	34335	240	0
3	39617	260	1
3	45041	280	0
3	50287	300	0
3	55563	320	1
3	60973	340	1
3	66292	360	0
3	71557	380	1
3	76951	400	2
3	82264	420	1
3	87629	440	1
3	92941	460	2
3	98310	480	0
3	103653	500	1
3	108996	520	1
3	114305	540	0
3	119587	560	3
3	124920	580	1
3	130255	600	2
3	135563	620	0
3	140831	640	4
3	146185	660	5
3	151487	680	1
3	156780	700	3
3	162184	720	5
3	167583	740	2
3	172833	760	1
3	178071	780	2
3	183333	800	0
3	188733	820	1
3	194029	840	2
3	199345	860	0
3	204631	880	2
3	209812	900	1
3	215114	920	1
3	220447	940	4
3	225806	960	3
3	231218	980	1
3	236543	1000	1
3	241964	1020	2
3	247256	1040	0
3	252496	1060	4
3	257818	1080	2
3	263116	1100	2
3	268421	1120	0
3	273689	1140	0
3	279109	1160	1
3	284352	1180	0
3	289610	1200	1
3	294888	1220	0
3	300179	1240	2
3	305376	1260	2
3	310709	1280	3
3	316031	1300	3
3	321301	1320	1
3	326663	1340	2
3	331977	1360	4
3	337224	1380	2
3	342551	1400	2
3	347819	1420	2
3	353081	1440	2
3	358384	1460	1
3	363772	1480	3
3	368930	1500	0
3	374226	1520	0
3	379500	1540	2
3	384695	1560	2
3	389968	1580	2
3	395238	1600	2
3	400579	1620	0
3	405879	1640	1
3	411257	1660	0
3	416584	1680	0
3	421856	1700	1
3	427124	1720	4
3	432381	1740	2
3	437766	1760	2
3	443103	1780	1
3	448407	1800	0
3	453308	1820	2
3	457570	1840	0
3	461329	1860	2
3	464680	1880	0
3	467585	1900	0
3	470118	1920	1
3	472148	1940	1
3	473745	1960	0
3	474804	1980	0
3	475359	2000	0
4	34335	240	1
4	39617	260	1.5
4	45041	280	nan
4	50287	300	1.8333333333333
4	55563	320	1.5
4	60973	340	1.1666666666667
4	66292	360	1.2
4	71557	380	1.25
4	76951	400	1.75
4	82264	420	1.1428571428571
4	87629	440	1.2
4	92941	460	2
4	98310	480	1.5
4	103653	500	2
4	108996	520	1
4	114305	540	1
4	119587	560	1.4
4	124920	580	1.25
4	130255	600	1.25
4	135563	620	1.6
4	140831	640	1
4	146185	660	1
4	151487	680	2
4	156780	700	1.3333333333333
4	162184	720	1
4	167583	740	1.3333333333333
4	172833	760	1.2857142857143
4	178071	780	1
4	183333	800	1.4
4	188733	820	1
4	194029	840	1
4	199345	860	1.2857142857143
4	204631	880	1.1666666666667
4	209812	900	1.3333333333333
4	215114	920	1.5
4	220447	940	1
4	225806	960	1
4	231218	980	1.3333333333333
4	236543	1000	1.8
4	241964	1020	1.6666666666667
4	247256	1040	1
4	252496	1060	2
4	257818	1080	1.5
4	263116	1100	1.2
4	268421	1120	2
4	273689	1140	1.5
4	279109	1160	1.5
4	284352	1180	1
4	289610	1200	1.1666666666667
4	294888	1220	1.3333333333333
4	300179	1240	1.5
4	305376	1260	1.3333333333333
4	310709	1280	1.5
4	316031	1300	1.6666666666667
4	321301	1320	1.3333333333333
4	326663	1340	1.5
4	331977	1360	2
4	337224	1380	1.5
4	342551	1400	2
4	347819	1420	1.3333333333333
4	353081	1440	1
4	358384	1460	1
4	363772	1480	1.3333333333333
4	368930	1500	1.6666666666667
4	374226	1520	1.25
4	379500	1540	1.5
4	384695	1560	1.6
4	389968	1580	1.4
4	395238	1600	1.1666666666667
4	400579	1620	1
4	405879	1640	1.5
4	411257	1660	1.4
4	416584	1680	1.6
4	421856	1700	2
4	427124	1720	1.4
4	432381	1740	1
4	437766	1760	2
4	443103	1780	1
4	448407	1800	1
4	453308	1820	1
4	457570	1840	1
4	461329	1860	1
4	464680	1880	1
4	467585	1900	1.1666666666667
4	470118	1920	1.6666666666667
4	472148	1940	2
4	473745	1960	1
4	474804	1980	1
4	475359	2000	nan
5	34335	240	0
5	39617	260	0.57735026918963
5	45041	280	nan
5	50287	300	0.75277265270908
5	55563	320	0.57735026918963
5	60973	340	0.40824829046386
5	66292	360	0.44721359549996
5	71557	380	0.5
5	76951	400	0.5
5	82264	420	0.37796447300923
5	87629	440	0.44721359549996
5	92941	460	nan
5	98310	480	0.57735026918963
5	103653	500	nan
5	108996	520	0
5	114305	540	nan
5	119587	560	0.54772255750517
5	124920	580	0.5
5	130255	600	0.5
5	135563	620	0.54772255750517
5	140831	640	0
5	146185	660	nan
5	151487	680	0
5	156780	700	0.51639777949432
5	162184	720	0
5	167583	740	0.51639777949432
5	172833	760	0.48795003647427
5	178071	780	0
5	183333	800	0.54772255750517
5	188733	820	0
5	194029	840	0
5	199345	860	0.48795003647427
5	204631	880	0.40824829046386
5	209812	900	0.57735026918963
5	215114	920	0.70710678118655
5	220447	940	0
5	225806	960	0
5	231218	980	0.57735026918963
5	236543	1000	0.44721359549996
5	241964	1020	0.57735026918963
5	247256	1040	0
5	252496	1060	0
5	257818	1080	0.54772255750517
5	263116	1100	0.44721359549996
5	268421	1120	0
5	273689	1140	0.70710678118655
5	279109	1160	0.70710678118655
5	284352	1180	0
5	289610	1200	0.40824829046386
5	294888	1220	0.57735026918963
5	300179	1240	0.70710678118655
5	305376	1260	0.51639777949432
5	310709	1280	0.57735026918963
5	316031	1300	0.57735026918963
5	321301	1320	0.57735026918963
5	326663	1340	0.57735026918963
5	331977	1360	0
5	337224	1380	0.57735026918963
5	342551	1400	0
5	347819	1420	0.57735026918963
5	353081	1440	0
5	358384	1460	0
5	363772	1480	0.51639777949432
5	368930	1500	0.57735026918963
5	374226	1520	0.5
5	379500	1540	0.57735026918963
5	384695	1560	0.54772255750517
5	389968	1580	0.54772255750517
5	395238	1600	0.40824829046386
5	400579	1620	0
5	405879	1640	0.53452248382485
5	411257	1660	0.54772255750517
5	416584	1680	0.54772255750517
5	421856	1700	0
5	427124	1720	0.54772255750517
5	432381	1740	0
5	437766	1760	nan
5	443103	1780	0
5	448407	1800	0
5	453308	1820	0
5	457570	1840	nan
5	461329	1860	nan
5	464680	1880	0
5	467585	1900	0.40824829046386
5	470118	1920	0.57735026918963
5	472148	1940	nan
5	473745	1960	nan
5	474804	1980	nan
5	475359	2000	nan
6	34335	240	0
6	39617	260	0.33333333333333
6	45041	280	nan
6	50287	300	0.56666666666667
6	55563	320	0.33333333333333
6	60973	340	0.16666666666667
6	66292	360	0.2
6	71557	380	0.25
6	76951	400	0.25
6	82264	420	0.14285714285714
6	87629	440	0.2
6	92941	460	nan
6	98310	480	0.33333333333333
6	103653	500	nan
6	108996	520	0
6	114305	540	nan
6	119587	560	0.3
6	124920	580	0.25
6	130255	600	0.25
6	135563	620	0.3
6	140831	640	0
6	146185	660	nan
6	151487	680	0
6	156780	700	0.26666666666667
6	162184	720	0
6	167583	740	0.26666666666667
6	172833	760	0.23809523809524
6	178071	780	0
6	183333	800	0.3
6	188733	820	0
6	194029	840	0
6	199345	860	0.23809523809524
6	204631	880	0.16666666666667
6	209812	900	0.33333333333333
6	215114	920	0.5
6	220447	940	0
6	225806	960	0
6	231218	980	0.33333333333333
6	236543	1000	0.2
6	241964	1020	0.33333333333333
6	247256	1040	0
6	252496	1060	0
6	257818	1080	0.3
6	263116	1100	0.2
6	268421	1120	0
6	273689	1140	0.5
6	279109	1160	0.5
6	284352	1180	0
6	289610	1200	0.16666666666667
6	294888	1220	0.33333333333333
6	300179	1240	0.5
6	305376	1260	0.26666666666667
6	310709	1280	0.33333333333333
6	316031	1300	0.33333333333333
6	321301	1320	0.33333333333333
6	326663	1340	0.33333333333333
6	331977	1360	0
6	337224	1380	0.33333333333333
6	342551	1400	0
6	347819	1420	0.33333333333333
6	353081	1440	0
6	358384	1460	0
6	363772	1480	0.26666666666667
6	368930	1500	0.33333333333333
6	374226	1520	0.25
6	379500	1540	0.33333333333333
6	384695	1560	0.3
6	389968	1580	0.3
6	395238	1600	0.16666666666667
6	400579	1620	0
6	405879	1640	0.28571428571429
6	411257	1660	0.3
6	416584	1680	0.3
6	421856	1700	0
6	427124	1720	0.3
6	432381	1740	0
6	437766	1760	nan
6	443103	1780	0
6	448407	1800	0
6	453308	1820	0
6	457570	1840	nan
6	461329	1860	nan
6	464680	1880	0
6	467585	1900	0.16666666666667
6	470118	1920	0.33333333333333
6	472148	1940	nan
6	473745	1960	nan
6	474804	1980	nan
6	475359	2000	nan
7	34335	240	9.0769230769231
7	39617	260	9.025
7	45041	280	9.175
7	50287	300	9.075
7	55563	320	8.9
7	60973	340	8.9024390243902
7	66292	360	9.2
7	71557	380	8.8
7	76951	400	8.8536585365854
7	82264	420	9
7	87629	440	9.05
7	92941	460	9.0512820512821
7	98310	480	9.025
7	103653	500	8.975
7	108996	520	8.9756097560976
7	114305	540	8.8
7	119587	560	8.9024390243902
7	124920	580	9.2
7	130255	600	9.1794871794872
7	135563	620	8.8292682926829
7	140831	640	8.775
7	146185	660	9.1219512195122
7	151487	680	8.7073170731707
7	156780	700	8.825
7	162184	720	9.15
7	167583	740	9.175
7	172833	760	8.8780487804878
7	178071	780	9.0769230769231
7	183333	800	8.8
7	188733	820	8.7560975609756
7	194029	840	8.925
7	199345	860	9.2051282051282
7	204631	880	9.025
7	209812	900	8.85
7	215114	920	8.6428571428571
7	220447	940	8.875
7	225806	960	9.0975609756098
7	231218	980	9.15
7	236543	1000	8.925
7	241964	1020	9.025
7	247256	1040	8.9512195121951
7	252496	1060	8.825
7	257818	1080	9.15
7	263116	1100	9.2564102564103
7	268421	1120	8.95
7	273689	1140	9.025641025641
7	279109	1160	8.9024390243902
7	284352	1180	8.95
7	289610	1200	8.85
7	294888	1220	8.85
7	300179	1240	8.7560975609756
7	305376	1260	9.05
7	310709	1280	9.05
7	316031	1300	8.9487179487179
7	321301	1320	8.85
7	326663	1340	9.125
7	331977	1360	8.8
7	337224	1380	8.974358974359
7	342551	1400	8.85
7	347819	1420	9.025641025641
7	353081	1440	8.7
7	358384	1460	8.9024390243902
7	363772	1480	8.6829268292683
7	368930	1500	8.7948717948718
7	374226	1520	9.125
7	379500	1540	8.925
7	384695	1560	8.75
7	389968	1580	8.8780487804878
7	395238	1600	8.609756097561
7	400579	1620	8.95
7	405879	1640	8.7317073170732
7	411257	1660	8.6829268292683
7	416584	1680	8.8536585365854
7	421856	1700	8.780487804878
7	427124	1720	8.875
7	432381	1740	8.7
7	437766	1760	9.075
7	443103	1780	9
7	448407	1800	8.8
7	453308	1820	8.8157894736842
7	457570	1840	8.1428571428571
7	461329	1860	8.258064516129
7	464680	1880	8.1428571428571
7	467585	1900	8
7	470118	1920	8.25
7	472148	1940	7.8333333333333
7	473745	1960	6.8571428571429
7	474804	1980	6.2727272727273
7	475359	2000	5.375
8	34335	240	1.5957940670567
8	39617	260	1.8043750249794
8	45041	280	1.4656319193703
8	50287	300	1.9267017120404
8	55563	320	1.7945787306532
8	60973	340	2.2338853825653
8	66292	360	2.0153258946231
8	71557	380	1.950673782345
8	76951	400	1.9819305690381
8	82264	420	2.1720839573895
8	87629	440	1.5350603429215
8	92941	460	1.5034822378087
8	98310	480	1.7169964831289
8	103653	500	1.9146868258349
8	108996	520	2.1964494630887
8	114305	540	1.950673782345
8	119587	560	1.8412614975714
8	124920	580	1.5392305770192
8	130255	600	1.9313452479908
8	135563	620	1.9352317564621
8	140831	640	1.7019973183865
8	146185	660	1.8465524897931
8	151487	680	1.8336289488201
8	156780	700	1.5833670711655
8	162184	720	1.5450499950421
8	167583	740	1.6468696023606
8	172833	760	1.7634500553066
8	178071	780	1.6122004476494
8	183333	800	1.7715703594443
8	188733	820	1.907622706471
8	194029	840	2.5052508958749
8	199345	860	1.5075160325496
8	204631	880	1.2503845562312
8	209812	900	1.8334498797454
8	215114	920	2.1619935309511
8	220447	940	2.1023491134614
8	225806	960	2.0712903954876
8	231218	980	1.4420427107014
8	236543	1000	1.3846688023884
8	241964	1020	1.9012479032845
8	247256	1040	1.7881725240059
8	252496	1060	1.6154304022815
8	257818	1080	1.3690723042845
8	263116	1100	1.2078242447508
8	268421	1120	1.7823925148303
8	273689	1140	2.0064000163579
8	279109	1160	1.8947938944484
8	284352	1180	1.852925614625
8	289610	1200	1.4420427107014
8	294888	1220	1.6878145480822
8	300179	1240	1.5456469164217
8	305376	1260	1.5516740339686
8	310709	1280	1.5012815038647
8	316031	1300	2.0384297097304
8	321301	1320	2.0575065816015
8	326663	1340	1.6974717247749
8	331977	1360	1.897366596101
8	337224	1380	1.4232501627054
8	342551	1400	1.3690723042845
8	347819	1420	1.8846635814157
8	353081	1440	2.0406132813697
8	358384	1460	1.5621280044987
8	363772	1480	1.9031424590693
8	368930	1500	1.9625371224043
8	374226	1520	1.5555937113758
8	379500	1540	1.6074745282506
8	384695	1560	1.6447273953845
8	389968	1580	1.4696108660326
8	395238	1600	1.9089008457813
8	400579	1620	2.074880286939
8	405879	1640	1.7032966600669
8	411257	1660	2.207249695778
8	416584	1680	2.031760020398
8	421856	1700	1.943092832599
8	427124	1720	1.6974717247749
8	432381	1740	2.1267526708757
8	437766	1760	1.639066338358
8	443103	1780	1.3774744634424
8	448407	1800	2.0025624610125
8	453308	1820	1.5041431637924
8	457570	1840	1.6295588927295
8	461329	1860	1.6726773336079
8	464680	1880	1.6934358174212
8	467585	1900	1.7693034738588
8	470118	1920	1.8317377426626
8	472148	1940	1.6890651782778
8	473745	1960	1.4600918230947
8	474804	1980	1.1908743922773
8	475359	2000	1.3024701806293
9	34335	240	2.5465587044534
9	39617	260	3.2557692307692
9	45041	280	2.1480769230769
9	50287	300	3.7121794871795
9	55563	320	3.2205128205128
9	60973	340	4.990243902439
9	66292	360	4.0615384615385
9	71557	380	3.8051282051282
9	76951	400	3.9280487804878
9	82264	420	4.7179487179487
9	87629	440	2.3564102564103
9	92941	460	2.2604588394062
9	98310	480	2.9480769230769
9	103653	500	3.6660256410256
9	108996	520	4.8243902439024
9	114305	540	3.8051282051282
9	119587	560	3.390243902439
9	124920	580	2.3692307692308
9	130255	600	3.7300944669366
9	135563	620	3.7451219512195
9	140831	640	2.8967948717949
9	146185	660	3.409756097561
9	151487	680	3.3621951219512
9	156780	700	2.5070512820513
9	162184	720	2.3871794871795
9	167583	740	2.7121794871795
9	172833	760	3.109756097561
9	178071	780	2.5991902834008
9	183333	800	3.1384615384615
9	188733	820	3.6390243902439
9	194029	840	6.2762820512821
9	199345	860	2.2726045883941
9	204631	880	1.5634615384615
9	209812	900	3.3615384615385
9	215114	920	4.6742160278746
9	220447	940	4.4198717948718
9	225806	960	4.290243902439
9	231218	980	2.0794871794872
9	236543	1000	1.9173076923077
9	241964	1020	3.6147435897436
9	247256	1040	3.1975609756098
9	252496	1060	2.6096153846154
9	257818	1080	1.874358974359
9	263116	1100	1.4588394062078
9	268421	1120	3.1769230769231
9	273689	1140	4.025641025641
9	279109	1160	3.590243902439
9	284352	1180	3.4333333333333
9	289610	1200	2.0794871794872
9	294888	1220	2.8487179487179
9	300179	1240	2.3890243902439
9	305376	1260	2.4076923076923
9	310709	1280	2.2538461538462
9	316031	1300	4.1551956815115
9	321301	1320	4.2333333333333
9	326663	1340	2.8814102564103
9	331977	1360	3.6
9	337224	1380	2.025641025641
9	342551	1400	1.874358974359
9	347819	1420	3.5519568151147
9	353081	1440	4.1641025641026
9	358384	1460	2.440243902439
9	363772	1480	3.6219512195122
9	368930	1500	3.8515519568151
9	374226	1520	2.4198717948718
9	379500	1540	2.5839743589744
9	384695	1560	2.7051282051282
9	389968	1580	2.159756097561
9	395238	1600	3.6439024390244
9	400579	1620	4.3051282051282
9	405879	1640	2.9012195121951
9	411257	1660	4.8719512195122
9	416584	1680	4.1280487804878
9	421856	1700	3.7756097560976
9	427124	1720	2.8814102564103
9	432381	1740	4.5230769230769
9	437766	1760	2.6865384615385
9	443103	1780	1.8974358974359
9	448407	1800	4.0102564102564
9	453308	1820	2.2624466571835
9	457570	1840	2.6554621848739
9	461329	1860	2.7978494623656
9	464680	1880	2.8677248677249
9	467585	1900	3.1304347826087
9	470118	1920	3.3552631578947
9	472148	1940	2.8529411764706
9	473745	1960	2.1318681318681
9	474804	1980	1.4181818181818
9	475359	2000	1.6964285714286
10	34335	240	141.76862289716
10	39617	260	188.24711405321
10	45041	280	0
10	50287	300	283.26280916114
10	55563	320	184.95888907792
10	60973	340	274.72385940502
10	66292	360	232.83520879048
10	71557	380	181.94045132511
10	76951	400	185.85442600309
10	82264	420	333.17703395956
10	87629	440	239.88137435231
10	92941	460	47.031102059396
10	98310	480	192.23687892498
10	103653	500	45.476828771487
10	108996	520	378.38555554973
10	114305	540	46.271439208273
10	119587	560	231.75674144032
10	124920	580	189.20217200321
10	130255	600	188.41611852949
10	135563	620	237.50674070325
10	140831	640	95.470548512279
10	146185	660	49.702383845166
10	151487	680	94.171821473569
10	156780	700	281.17410724818
10	162184	720	185.61045700007
10	167583	740	282.57687459454
10	172833	760	332.53211515554
10	178071	780	186.06516925725
10	183333	800	235.60320105041
10	188733	820	93.604771082572
10	194029	840	96.333149208665
10	199345	860	320.73989859064
10	204631	880	286.48319703322
10	209812	900	140.33799551132
10	215114	920	98.582892391408
10	220447	940	182.44200849277
10	225806	960	139.90026099689
10	231218	980	144.67917032972
10	236543	1000	236.46491289514
10	241964	1020	143.73453579204
10	247256	1040	102.75223153582
10	252496	1060	143.09961142658
10	257818	1080	283.24478516031
10	263116	1100	232.16139692838
10	268421	1120	191.3846702301
10	273689	1140	89.511202023814
10	279109	1160	91.762880063237
10	284352	1180	92.573935956327
10	289610	1200	276.03424440945
10	294888	1220	140.64325392457
10	300179	1240	91.282756161012
10	305376	1260	277.20440147971
10	310709	1280	189.43495030077
10	316031	1300	136.28812296441
10	321301	1320	138.36028099037
10	326663	1340	189.21577845795
10	331977	1360	141.04400943322
10	337224	1380	184.91733307379
10	342551	1400	93.032262085964
10	347819	1420	143.50959350971
10	353081	1440	182.0771827082
10	358384	1460	144.30928467837
10	363772	1480	278.87280080174
10	368930	1500	135.77968355309
10	374226	1520	185.23035845747
10	379500	1540	186.81061895696
10	384695	1560	238.40872353547
10	389968	1580	235.19852199995
10	395238	1600	283.85372563224
10	400579	1620	148.29849355177
10	405879	1640	376.42021535122
10	411257	1660	231.6445423124
10	416584	1680	237.72252209015
10	421856	1700	91.87096754218
10	427124	1720	228.67236267728
10	432381	1740	140.13586356397
10	437766	1760	46.198723953291
10	443103	1780	90.824453831599
10	448407	1800	94.402240497203
10	453308	1820	138.12920051092
10	457570	1840	48.128122991497
10	461329	1860	47.020303316044
10	464680	1880	139.94265152439
10	467585	1900	290.44624787205
10	470118	1920	139.69206475486
10	472148	1940	48.614746335542
10	473745	1960	50.607239491315
10	474804	1980	40.701545562409
10	475359	2000	0
11	34335	240	47.256207632386
11	39617	260	47.061778513303
11	45041	280	nan
11	50287	300	47.210468193523
11	55563	320	46.23972226948
11	60973	340	45.787309900837
11	66292	360	46.567041758097
11	71557	380	45.485112831277
11	76951	400	46.463606500771
11	82264	420	47.596719137081
11	87629	440	47.976274870462
11	92941	460	47.031102059396
11	98310	480	48.059219731244
11	103653	500	45.476828771487
11	108996	520	47.298194443717
11	114305	540	46.271439208273
11	119587	560	46.351348288064
11	124920	580	47.300543000803
11	130255	600	47.104029632373
11	135563	620	47.501348140651
11	140831	640	47.73527425614
11	146185	660	49.702383845166
11	151487	680	47.085910736784
11	156780	700	46.862351208031
11	162184	720	46.402614250018
11	167583	740	47.096145765756
11	172833	760	47.504587879363
11	178071	780	46.516292314311
11	183333	800	47.120640210082
11	188733	820	46.802385541286
11	194029	840	48.166574604332
11	199345	860	45.819985512948
11	204631	880	47.747199505537
11	209812	900	46.779331837107
11	215114	920	49.291446195704
11	220447	940	45.610502123193
11	225806	960	46.633420332296
11	231218	980	48.226390109906
11	236543	1000	47.292982579028
11	241964	1020	47.911511930681
11	247256	1040	51.37611576791
11	252496	1060	47.699870475526
11	257818	1080	47.207464193385
11	263116	1100	46.432279385676
11	268421	1120	47.846167557525
11	273689	1140	44.755601011907
11	279109	1160	45.881440031618
11	284352	1180	46.286967978163
11	289610	1200	46.005707401575
11	294888	1220	46.881084641525
11	300179	1240	45.641378080506
11	305376	1260	46.200733579952
11	310709	1280	47.358737575193
11	316031	1300	45.42937432147
11	321301	1320	46.120093663455
11	326663	1340	47.303944614488
11	331977	1360	47.014669811074
11	337224	1380	46.229333268448
11	342551	1400	46.516131042982
11	347819	1420	47.836531169904
11	353081	1440	45.519295677049
11	358384	1460	48.10309489279
11	363772	1480	46.478800133624
11	368930	1500	45.259894517696
11	374226	1520	46.307589614368
11	379500	1540	46.70265473924
11	384695	1560	47.681744707094
11	389968	1580	47.039704399989
11	395238	1600	47.30895427204
11	400579	1620	49.432831183923
11	405879	1640	47.052526918902
11	411257	1660	46.328908462481
11	416584	1680	47.544504418031
11	421856	1700	45.93548377109
11	427124	1720	45.734472535456
11	432381	1740	46.711954521322
11	437766	1760	46.198723953291
11	443103	1780	45.412226915799
11	448407	1800	47.201120248602
11	453308	1820	46.043066836973
11	457570	1840	48.128122991497
11	461329	1860	47.020303316044
11	464680	1880	46.647550508131
11	467585	1900	48.407707978676
11	470118	1920	46.564021584953
11	472148	1940	48.614746335542
11	473745	1960	50.607239491315
11	474804	1980	40.701545562409
11	475359	2000	nan
12	34335	240	1.3967054538025
12	39617	260	1.6360178502189
12	45041	280	nan
12	50287	300	0.96574364648862
12	55563	320	1.3249037341176
12	60973	340	0.76546703471984
12	66292	360	1.0371696468073
12	71557	380	0.2278110849068
12	76951	400	0.99673614840769
12	82264	420	3.0669935219854
12	87629	440	1.8889523874128
12	92941	460	nan
12	98310	480	2.6331799692109
12	103653	500	nan
12	108996	520	1.9677110536252
12	114305	540	nan
12	119587	560	1.304722310975
12	124920	580	1.9922022824354
12	130255	600	1.6860728196937
12	135563	620	1.0987465027523
12	140831	640	2.1116066158306
12	146185	660	nan
12	151487	680	0.95774124121919
12	156780	700	1.6169237497391
12	162184	720	0.23470650750624
12	167583	740	1.1617292389643
12	172833	760	1.2226378565671
12	178071	780	1.487230702613
12	183333	800	0.97114841191115
12	188733	820	0.22070160698056
12	194029	840	1.2867377362095
12	199345	860	2.3807386499688
12	204631	880	3.7505646925502
12	209812	900	1.5162659406245
12	215114	920	1.7004344770689
12	220447	940	0.63895521788837
12	225806	960	0.40276964046887
12	231218	980	3.6152466651089
12	236543	1000	0.45739191583442
12	241964	1020	1.8661278212678
12	247256	1040	0.15763623941197
12	252496	1060	1.4868415391777
12	257818	1080	1.7945272177513
12	263116	1100	1.3259452957305
12	268421	1120	1.4382703510597
12	273689	1140	1.5729274270742
12	279109	1160	1.1727163767329
12	284352	1180	0.5926884677544
12	289610	1200	1.6875414060085
12	294888	1220	2.7621150556036
12	300179	1240	1.0593698924329
12	305376	1260	1.2275927023688
12	310709	1280	1.8528860080118
12	316031	1300	1.8329576582026
12	321301	1320	2.1739060653025
12	326663	1340	0.79743174921912
12	331977	1360	1.3739110740525
12	337224	1380	1.9540930820895
12	342551	1400	1.0979659103917
12	347819	1420	0.68977546559682
12	353081	1440	0.60984614887386
12	358384	1460	2.2148248352952
12	363772	1480	1.2495959545755
12	368930	1500	0.73712253424793
12	374226	1520	1.183108289662
12	379500	1540	0.97195823311515
12	384695	1560	2.5374903293159
12	389968	1580	1.3170832861013
12	395238	1600	1.9367042512605
12	400579	1620	2.1418144592847
12	405879	1640	3.3566930916654
12	411257	1660	1.106918593536
12	416584	1680	2.2278770849022
12	421856	1700	1.0572113818264
12	427124	1720	1.0469993179918
12	432381	1740	3.3064818732695
12	437766	1760	nan
12	443103	1780	0.21350776454617
12	448407	1800	1.3748418632238
12	453308	1820	0.19199563914063
12	457570	1840	nan
12	461329	1860	nan
12	464680	1880	1.5141700647756
12	467585	1900	3.1729626317276
12	470118	1920	0.46815827230257
12	472148	1940	nan
12	473745	1960	nan
12	474804	1980	nan
12	475359	2000	nan
13	34335	240	1.9507861246816
13	39617	260	2.6765544062348
13	45041	280	nan
13	50287	300	0.93266079073313
13	55563	320	1.7553699046788
13	60973	340	0.58593978124278
13	66292	360	1.0757208762583
13	71557	380	0.051897890406414
13	76951	400	0.99348294954259
13	82264	420	9.4064492639004
13	87629	440	3.5681411219126
13	92941	460	nan
13	98310	480	6.9336367502534
13	103653	500	nan
13	108996	520	3.8718867905588
13	114305	540	nan
13	119587	560	1.702300308756
13	124920	580	3.9688699341407
13	130255	600	2.84284155331
13	135563	620	1.2072438773104
13	140831	640	4.4588825000197
13	146185	660	nan
13	151487	680	0.91726828513207
13	156780	700	2.6144424124702
13	162184	720	0.055087144665775
13	167583	740	1.3496148246645
13	172833	760	1.4948433283111
13	178071	780	2.2118551627947
13	183333	800	0.94312923795754
13	188733	820	0.048709199323803
13	194029	840	1.6556940017855
13	199345	860	5.6679165194551
13	204631	880	14.066735513004
13	209812	900	2.2990624026979
13	215114	920	2.8914774108045
13	220447	940	0.40826377046677
13	225806	960	0.16222338328343
13	231218	980	13.070008449581
13	236543	1000	0.20920736467068
13	241964	1020	3.4824330453099