version 2
run statisticRVV-69-20150327-02:23:22-15132
attr c 7
attr configname statisticRVV
attr datetime 20150327-02:23:22
attr experiment statisticRVV
attr inifile omnetpp.ini
attr iterationvars "$sc=\"erlangen-low.launchd.xml\", $p=1/8, $c=7"
attr iterationvars2 "$sc=\"erlangen-low.launchd.xml\", $p=1/8, $c=7, $repetition=9"
attr measurement "$sc=\"erlangen-low.launchd.xml\", $p=1/8, $c=7"
attr network RSUExampleScenario
attr p 1/8
attr processid 15132
attr repetition 9
attr replication #9
attr resultdir results
attr runnumber 69
attr sc "\"erlangen-low.launchd.xml\""
attr seedset 69

vector 0  RSUExampleScenario.rsu[0].appl  Number_CH  ETV
vector 1  RSUExampleScenario.rsu[0].appl  Number_ON  ETV
vector 2  RSUExampleScenario.rsu[0].appl  Number_FN  ETV
vector 3  RSUExampleScenario.rsu[0].appl  Number_CH_Losts  ETV
vector 4  RSUExampleScenario.rsu[0].appl  Number_CH_Losts  ETV
vector 5  RSUExampleScenario.rsu[0].appl  Mean_Cluster_Size  ETV
vector 6  RSUExampleScenario.rsu[0].appl  StdDev_Cluster_Size  ETV
vector 7  RSUExampleScenario.rsu[0].appl  Variance_Cluster_Size  ETV
vector 8  RSUExampleScenario.rsu[0].appl  Mean_Neighbors  ETV
vector 9  RSUExampleScenario.rsu[0].appl  StdDev_Neighbors  ETV
vector 10  RSUExampleScenario.rsu[0].appl  Variance_Neighbors  ETV
vector 11  RSUExampleScenario.rsu[0].appl  Total_CH_Utility  ETV
vector 12  RSUExampleScenario.rsu[0].appl  Mean_CH_Utility  ETV
vector 13  RSUExampleScenario.rsu[0].appl  StdDev_CH_Utility  ETV
vector 14  RSUExampleScenario.rsu[0].appl  Variance_CH_Utility  ETV
vector 15  RSUExampleScenario.rsu[0].appl  Total_exp_CH_Utility  ETV
vector 16  RSUExampleScenario.rsu[0].appl  Mean_exp_CH_Utility  ETV
vector 17  RSUExampleScenario.rsu[0].appl  StdDev_exp_CH_Utility  ETV
vector 18  RSUExampleScenario.rsu[0].appl  Variance_exp_CH_Utility  ETV
vector 19  RSUExampleScenario.rsu[0].appl  Total_ON_Utility  ETV
vector 20  RSUExampleScenario.rsu[0].appl  Mean_ON_Utility  ETV
vector 21  RSUExampleScenario.rsu[0].appl  StdDev_ON_Utility  ETV
vector 22  RSUExampleScenario.rsu[0].appl  Variance_ON_Utility  ETV
vector 23  RSUExampleScenario.rsu[0].appl  Total_exp_ON_Utility  ETV
vector 24  RSUExampleScenario.rsu[0].appl  Mean_exp_ON_Utility  ETV
vector 25  RSUExampleScenario.rsu[0].appl  StdDev_exp_ON_Utility  ETV
vector 26  RSUExampleScenario.rsu[0].appl  Variance_exp_ON_Utility  ETV
0	34230	240	6
0	39514	260	5
0	44856	280	6
0	50237	300	4
0	55631	320	9
0	60991	340	2
0	66326	360	5
0	71472	380	3
0	76834	400	3
0	82226	420	6
0	87437	440	8
0	92768	460	2
0	98233	480	6
0	103537	500	4
0	108829	520	5
0	113991	540	7
0	119312	560	0
0	124655	580	6
0	130083	600	3
0	135402	620	4
0	140664	640	0
0	145961	660	8
0	151280	680	4
0	156495	700	5
0	161812	720	7
0	166986	740	2
0	172355	760	6
0	177642	780	6
0	182923	800	2
0	188256	820	2
0	193621	840	2
0	198952	860	7
0	204293	880	4
0	209652	900	3
0	215009	920	6
0	220244	940	4
0	225578	960	6
0	230858	980	9
0	236171	1000	4
0	241411	1020	7
0	246711	1040	7
0	252046	1060	1
0	257385	1080	2
0	262770	1100	2
0	268107	1120	1
0	273393	1140	6
0	278728	1160	7
0	284104	1180	7
0	289419	1200	8
0	294781	1220	9
0	300150	1240	1
0	305528	1260	5
0	310808	1280	6
0	316085	1300	4
0	321298	1320	8
0	326495	1340	4
0	331787	1360	3
0	337106	1380	6
0	342414	1400	5
0	347775	1420	8
0	353095	1440	5
0	358417	1460	3
0	363715	1480	7
0	369155	1500	3
0	374376	1520	8
0	379716	1540	5
0	385105	1560	3
0	390363	1580	1
0	395620	1600	8
0	400901	1620	7
0	406257	1640	2
0	411600	1660	6
0	416805	1680	4
0	422047	1700	3
0	427319	1720	4
0	432650	1740	6
0	438082	1760	2
0	443412	1780	2
0	448741	1800	4
0	453673	1820	4
0	457905	1840	3
0	461686	1860	4
0	465000	1880	4
0	467944	1900	0
0	470463	1920	3
0	472489	1940	2
0	474031	1960	1
0	475096	1980	1
0	475698	2000	1
1	34230	240	17
1	39514	260	10
1	44856	280	18
1	50237	300	10
1	55631	320	19
1	60991	340	6
1	66326	360	13
1	71472	380	11
1	76834	400	7
1	82226	420	16
1	87437	440	18
1	92768	460	10
1	98233	480	16
1	103537	500	8
1	108829	520	11
1	113991	540	13
1	119312	560	0
1	124655	580	13
1	130083	600	9
1	135402	620	13
1	140664	640	0
1	145961	660	15
1	151280	680	14
1	156495	700	9
1	161812	720	16
1	166986	740	8
1	172355	760	13
1	177642	780	11
1	182923	800	8
1	188256	820	8
1	193621	840	7
1	198952	860	14
1	204293	880	9
1	209652	900	10
1	215009	920	14
1	220244	940	8
1	225578	960	15
1	230858	980	16
1	236171	1000	13
1	241411	1020	9
1	246711	1040	14
1	252046	1060	2
1	257385	1080	8
1	262770	1100	9
1	268107	1120	6
1	273393	1140	14
1	278728	1160	15
1	284104	1180	16
1	289419	1200	15
1	294781	1220	16
1	300150	1240	4
1	305528	1260	11
1	310808	1280	12
1	316085	1300	10
1	321298	1320	18
1	326495	1340	12
1	331787	1360	13
1	337106	1380	15
1	342414	1400	13
1	347775	1420	18
1	353095	1440	13
1	358417	1460	5
1	363715	1480	19
1	369155	1500	6
1	374376	1520	14
1	379716	1540	13
1	385105	1560	9
1	390363	1580	4
1	395620	1600	18
1	400901	1620	16
1	406257	1640	5
1	411600	1660	18
1	416805	1680	15
1	422047	1700	7
1	427319	1720	13
1	432650	1740	16
1	438082	1760	8
1	443412	1780	5
1	448741	1800	12
1	453673	1820	11
1	457905	1840	8
1	461686	1860	9
1	465000	1880	6
1	467944	1900	0
1	470463	1920	4
1	472489	1940	4
1	474031	1960	2
1	475096	1980	3
1	475698	2000	2
2	34230	240	16
2	39514	260	26
2	44856	280	17
2	50237	300	26
2	55631	320	12
2	60991	340	32
2	66326	360	21
2	71472	380	25
2	76834	400	31
2	82226	420	18
2	87437	440	14
2	92768	460	29
2	98233	480	18
2	103537	500	27
2	108829	520	24
2	113991	540	19
2	119312	560	40
2	124655	580	22
2	130083	600	28
2	135402	620	24
2	140664	640	40
2	145961	660	18
2	151280	680	23
2	156495	700	26
2	161812	720	17
2	166986	740	29
2	172355	760	21
2	177642	780	23
2	182923	800	30
2	188256	820	32
2	193621	840	32
2	198952	860	21
2	204293	880	28
2	209652	900	28
2	215009	920	21
2	220244	940	27
2	225578	960	19
2	230858	980	15
2	236171	1000	23
2	241411	1020	23
2	246711	1040	19
2	252046	1060	38
2	257385	1080	31
2	262770	1100	29
2	268107	1120	33
2	273393	1140	20
2	278728	1160	19
2	284104	1180	17
2	289419	1200	18
2	294781	1220	16
2	300150	1240	36
2	305528	1260	25
2	310808	1280	22
2	316085	1300	26
2	321298	1320	14
2	326495	1340	24
2	331787	1360	24
2	337106	1380	20
2	342414	1400	22
2	347775	1420	14
2	353095	1440	23
2	358417	1460	32
2	363715	1480	14
2	369155	1500	31
2	374376	1520	17
2	379716	1540	22
2	385105	1560	29
2	390363	1580	36
2	395620	1600	15
2	400901	1620	18
2	406257	1640	34
2	411600	1660	17
2	416805	1680	22
2	422047	1700	30
2	427319	1720	24
2	432650	1740	19
2	438082	1760	31
2	443412	1780	33
2	448741	1800	24
2	453673	1820	22
2	457905	1840	23
2	461686	1860	18
2	465000	1880	18
2	467944	1900	24
2	470463	1920	14
2	472489	1940	11
2	474031	1960	11
2	475096	1980	7
2	475698	2000	5
3	34230	240	0
3	39514	260	0
3	44856	280	1
3	50237	300	1
3	55631	320	1
3	60991	340	1
3	66326	360	0
3	71472	380	0
3	76834	400	0
3	82226	420	0
3	87437	440	0
3	92768	460	0
3	98233	480	2
3	103537	500	0
3	108829	520	0
3	113991	540	1
3	119312	560	0
3	124655	580	0
3	130083	600	0
3	135402	620	0
3	140664	640	0
3	145961	660	0
3	151280	680	0
3	156495	700	0
3	161812	720	0
3	166986	740	0
3	172355	760	0
3	177642	780	0
3	182923	800	0
3	188256	820	1
3	193621	840	0
3	198952	860	0
3	204293	880	1
3	209652	900	1
3	215009	920	0
3	220244	940	0
3	225578	960	0
3	230858	980	0
3	236171	1000	0
3	241411	1020	1
3	246711	1040	2
3	252046	1060	0
3	257385	1080	0
3	262770	1100	0
3	268107	1120	0
3	273393	1140	0
3	278728	1160	0
3	284104	1180	0
3	289419	1200	1
3	294781	1220	0
3	300150	1240	0
3	305528	1260	0
3	310808	1280	1
3	316085	1300	0
3	321298	1320	1
3	326495	1340	0
3	331787	1360	0
3	337106	1380	0
3	342414	1400	0
3	347775	1420	0
3	353095	1440	1
3	358417	1460	1
3	363715	1480	0
3	369155	1500	0
3	374376	1520	1
3	379716	1540	0
3	385105	1560	0
3	390363	1580	0
3	395620	1600	0
3	400901	1620	0
3	406257	1640	0
3	411600	1660	1
3	416805	1680	0
3	422047	1700	1
3	427319	1720	1
3	432650	1740	1
3	438082	1760	0
3	443412	1780	0
3	448741	1800	0
3	453673	1820	0
3	457905	1840	0
3	461686	1860	0
3	465000	1880	0
3	467944	1900	0
3	470463	1920	0
3	472489	1940	0
3	474031	1960	0
3	475096	1980	0
3	475698	2000	0
4	34230	240	16
4	39514	260	26
4	44856	280	16
4	50237	300	24
4	55631	320	11
4	60991	340	31
4	66326	360	21
4	71472	380	25
4	76834	400	30
4	82226	420	18
4	87437	440	14
4	92768	460	28
4	98233	480	16
4	103537	500	27
4	108829	520	24
4	113991	540	18
4	119312	560	40
4	124655	580	22
4	130083	600	28
4	135402	620	24
4	140664	640	40
4	145961	660	18
4	151280	680	23
4	156495	700	26
4	161812	720	17
4	166986	740	29
4	172355	760	21
4	177642	780	23
4	182923	800	30
4	188256	820	31
4	193621	840	32
4	198952	860	19
4	204293	880	26
4	209652	900	26
4	215009	920	21
4	220244	940	27
4	225578	960	18
4	230858	980	15
4	236171	1000	23
4	241411	1020	22
4	246711	1040	17
4	252046	1060	38
4	257385	1080	31
4	262770	1100	28
4	268107	1120	33
4	273393	1140	20
4	278728	1160	18
4	284104	1180	17
4	289419	1200	17
4	294781	1220	15
4	300150	1240	36
4	305528	1260	25
4	310808	1280	21
4	316085	1300	25
4	321298	1320	12
4	326495	1340	24
4	331787	1360	24
4	337106	1380	20
4	342414	1400	22
4	347775	1420	14
4	353095	1440	22
4	358417	1460	30
4	363715	1480	14
4	369155	1500	31
4	374376	1520	16
4	379716	1540	21
4	385105	1560	29
4	390363	1580	36
4	395620	1600	14
4	400901	1620	18
4	406257	1640	34
4	411600	1660	15
4	416805	1680	22
4	422047	1700	29
4	427319	1720	23
4	432650	1740	18
4	438082	1760	30
4	443412	1780	32
4	448741	1800	24
4	453673	1820	22
4	457905	1840	23
4	461686	1860	18
4	465000	1880	18
4	467944	1900	24
4	470463	1920	14
4	472489	1940	11
4	474031	1960	11
4	475096	1980	7
4	475698	2000	5
5	34230	240	2.8333333333333
5	39514	260	2
5	44856	280	3
5	50237	300	2.5
5	55631	320	2.1111111111111
5	60991	340	3
5	66326	360	2.6
5	71472	380	3.6666666666667
5	76834	400	2.3333333333333
5	82226	420	2.6666666666667
5	87437	440	2.25
5	92768	460	5
5	98233	480	2.6666666666667
5	103537	500	2
5	108829	520	2.2
5	113991	540	1.8571428571429
5	119312	560	nan
5	124655	580	2.1666666666667
5	130083	600	3
5	135402	620	3.25
5	140664	640	nan
5	145961	660	1.875
5	151280	680	3.5
5	156495	700	1.8
5	161812	720	2.2857142857143
5	166986	740	4
5	172355	760	2.1666666666667
5	177642	780	1.8333333333333
5	182923	800	4
5	188256	820	4
5	193621	840	3.5
5	198952	860	2
5	204293	880	2.25
5	209652	900	3.3333333333333
5	215009	920	2.3333333333333
5	220244	940	2
5	225578	960	2.5
5	230858	980	1.7777777777778
5	236171	1000	3.25
5	241411	1020	1.2857142857143
5	246711	1040	2
5	252046	1060	2
5	257385	1080	4
5	262770	1100	4.5
5	268107	1120	6
5	273393	1140	2.3333333333333
5	278728	1160	2.1428571428571
5	284104	1180	2.2857142857143
5	289419	1200	1.875
5	294781	1220	1.7777777777778
5	300150	1240	4
5	305528	1260	2.2
5	310808	1280	2
5	316085	1300	2.5
5	321298	1320	2.25
5	326495	1340	3
5	331787	1360	4.3333333333333
5	337106	1380	2.5
5	342414	1400	2.6
5	347775	1420	2.25
5	353095	1440	2.6
5	358417	1460	1.6666666666667
5	363715	1480	2.7142857142857
5	369155	1500	2
5	374376	1520	1.75
5	379716	1540	2.6
5	385105	1560	3
5	390363	1580	4
5	395620	1600	2.25
5	400901	1620	2.2857142857143
5	406257	1640	2.5
5	411600	1660	3
5	416805	1680	3.75
5	422047	1700	2.3333333333333
5	427319	1720	3.25
5	432650	1740	2.6666666666667
5	438082	1760	4
5	443412	1780	2.5
5	448741	1800	3
5	453673	1820	2.75
5	457905	1840	2.6666666666667
5	461686	1860	2.25
5	465000	1880	1.5
5	467944	1900	nan
5	470463	1920	1.3333333333333
5	472489	1940	2
5	474031	1960	2
5	475096	1980	3
5	475698	2000	2
6	34230	240	1.16904519445
6	39514	260	0.70710678118655
6	44856	280	1.6733200530682
6	50237	300	2.3804761428476
6	55631	320	1.0540925533895
6	60991	340	2.8284271247462
6	66326	360	1.5165750888103
6	71472	380	2.5166114784236
6	76834	400	0.57735026918963
6	82226	420	1.211060141639
6	87437	440	0.88640526042792
6	92768	460	1.4142135623731
6	98233	480	1.5055453054182
6	103537	500	0
6	108829	520	1.3038404810405
6	113991	540	1.5735915849389
6	119312	560	nan
6	124655	580	1.6020819787597
6	130083	600	1.7320508075689
6	135402	620	1.5
6	140664	640	nan
6	145961	660	1.3562026818605
6	151280	680	1.7320508075689
6	156495	700	1.0954451150103
6	161812	720	1.1126972805284
6	166986	740	2.8284271247462
6	172355	760	0.75277265270908
6	177642	780	1.16904519445
6	182923	800	2.8284271247462
6	188256	820	2.8284271247462
6	193621	840	3.5355339059327
6	198952	860	1.4142135623731
6	204293	880	0.95742710775634
6	209652	900	2.3094010767585
6	215009	920	1.5055453054182
6	220244	940	0.81649658092773
6	225578	960	1.5165750888103
6	230858	980	1.3944333775568
6	236171	1000	2.0615528128088
6	241411	1020	0.48795003647427
6	246711	1040	1
6	252046	1060	nan
6	257385	1080	4.2426406871193
6	262770	1100	0.70710678118655
6	268107	1120	nan
6	273393	1140	1.0327955589886
6	278728	1160	1.4638501094228
6	284104	1180	1.7043362064927
6	289419	1200	1.1259916264596
6	294781	1220	0.66666666666667
6	300150	1240	nan
6	305528	1260	1.3038404810405
6	310808	1280	1.2649110640674
6	316085	1300	1
6	321298	1320	0.88640526042792
6	326495	1340	2.1602468994693
6	331787	1360	2.3094010767585
6	337106	1380	0.83666002653408
6	342414	1400	1.3416407864999
6	347775	1420	0.70710678118655
6	353095	1440	1.6733200530682
6	358417	1460	0.57735026918963
6	363715	1480	2.6276913640612
6	369155	1500	1
6	374376	1520	1.0350983390135
6	379716	1540	1.1401754250991
6	385105	1560	1
6	390363	1580	nan
6	395620	1600	1.0350983390135
6	400901	1620	1.3801311186847
6	406257	1640	0.70710678118655
6	411600	1660	1.549193338483
6	416805	1680	2.3629078131263
6	422047	1700	0.57735026918963
6	427319	1720	0.5
6	432650	1740	1.0327955589886
6	438082	1760	1.4142135623731
6	443412	1780	0.70710678118655
6	448741	1800	1.1547005383793
6	453673	1820	2.0615528128088
6	457905	1840	2.0816659994661
6	461686	1860	0.95742710775634
6	465000	1880	0.57735026918963
6	467944	1900	nan
6	470463	1920	0.57735026918963
6	472489	1940	1.4142135623731
6	474031	1960	nan
6	475096	1980	nan
6	475698	2000	nan
7	34230	240	1.3666666666667
7	39514	260	0.5
7	44856	280	2.8
7	50237	300	5.6666666666667
7	55631	320	1.1111111111111
7	60991	340	8
7	66326	360	2.3
7	71472	380	6.3333333333333
7	76834	400	0.33333333333333
7	82226	420	1.4666666666667
7	87437	440	0.78571428571429
7	92768	460	2
7	98233	480	2.2666666666667
7	103537	500	0
7	108829	520	1.7
7	113991	540	2.4761904761905
7	119312	560	nan
7	124655	580	2.5666666666667
7	130083	600	3
7	135402	620	2.25
7	140664	640	nan
7	145961	660	1.8392857142857
7	151280	680	3
7	156495	700	1.2
7	161812	720	1.2380952380952
7	166986	740	8
7	172355	760	0.56666666666667
7	177642	780	1.3666666666667
7	182923	800	8
7	188256	820	8
7	193621	840	12.5
7	198952	860	2
7	204293	880	0.91666666666667
7	209652	900	5.3333333333333
7	215009	920	2.2666666666667
7	220244	940	0.66666666666667
7	225578	960	2.3
7	230858	980	1.9444444444444
7	236171	1000	4.25
7	241411	1020	0.23809523809524
7	246711	1040	1
7	252046	1060	nan
7	257385	1080	18
7	262770	1100	0.5
7	268107	1120	nan
7	273393	1140	1.0666666666667
7	278728	1160	2.1428571428571
7	284104	1180	2.9047619047619
7	289419	1200	1.2678571428571
7	294781	1220	0.44444444444444
7	300150	1240	nan
7	305528	1260	1.7
7	310808	1280	1.6
7	316085	1300	1
7	321298	1320	0.78571428571429
7	326495	1340	4.6666666666667
7	331787	1360	5.3333333333333
7	337106	1380	0.7
7	342414	1400	1.8
7	347775	1420	0.5
7	353095	1440	2.8
7	358417	1460	0.33333333333333
7	363715	1480	6.9047619047619
7	369155	1500	1
7	374376	1520	1.0714285714286
7	379716	1540	1.3
7	385105	1560	1
7	390363	1580	nan
7	395620	1600	1.0714285714286
7	400901	1620	1.9047619047619
7	406257	1640	0.5
7	411600	1660	2.4
7	416805	1680	5.5833333333333
7	422047	1700	0.33333333333333
7	427319	1720	0.25
7	432650	1740	1.0666666666667
7	438082	1760	2
7	443412	1780	0.5
7	448741	1800	1.3333333333333
7	453673	1820	4.25
7	457905	1840	4.3333333333333
7	461686	1860	0.91666666666667
7	465000	1880	0.33333333333333
7	467944	1900	nan
7	470463	1920	0.33333333333333
7	472489	1940	2
7	474031	1960	nan
7	475096	1980	nan
7	475698	2000	nan
8	34230	240	8.9487179487179
8	39514	260	8.7317073170732
8	44856	280	8.6829268292683
8	50237	300	9.2307692307692
8	55631	320	9.125
8	60991	340	8.825
8	66326	360	9.0512820512821
8	71472	380	8.9230769230769
8	76834	400	8.925
8	82226	420	8.875
8	87437	440	8.725
8	92768	460	9
8	98233	480	9.1
8	103537	500	9.1282051282051
8	108829	520	8.9
8	113991	540	9.2051282051282
8	119312	560	8.875
8	124655	580	8.8536585365854
8	130083	600	9.15
8	135402	620	8.6341463414634
8	140664	640	8.875
8	145961	660	8.7560975609756
8	151280	680	8.6585365853659
8	156495	700	8.875
8	161812	720	9.2
8	166986	740	8.9230769230769
8	172355	760	8.9
8	177642	780	8.875
8	182923	800	9
8	188256	820	8.547619047619
8	193621	840	8.9024390243902
8	198952	860	9.275
8	204293	880	9.125
8	209652	900	9.125
8	215009	920	8.9756097560976
8	220244	940	9
8	225578	960	9.1282051282051
8	230858	980	8.8
8	236171	1000	9
8	241411	1020	8.8717948717949
8	246711	1040	8.95
8	252046	1060	9.0243902439024
8	257385	1080	8.8536585365854
8	262770	1100	9.2051282051282
8	268107	1120	8.925
8	273393	1140	8.85
8	278728	1160	9.05
8	284104	1180	9.05
8	289419	1200	8.6585365853659
8	294781	1220	9.15
8	300150	1240	8.8292682926829
8	305528	1260	8.8780487804878
8	310808	1280	8.95
8	316085	1300	9.2051282051282
8	321298	1320	8.8461538461538
8	326495	1340	8.825
8	331787	1360	9.075
8	337106	1380	9
8	342414	1400	8.925
8	347775	1420	9.025
8	353095	1440	8.8780487804878
8	358417	1460	9.2820512820513
8	363715	1480	8.975
8	369155	1500	9.2
8	374376	1520	9.1794871794872
8	379716	1540	8.9230769230769
8	385105	1560	8.9268292682927
8	390363	1580	8.8780487804878
8	395620	1600	8.775
8	400901	1620	8.6585365853659
8	406257	1640	9.0975609756098
8	411600	1660	8.975
8	416805	1680	8.6585365853659
8	422047	1700	8.85
8	427319	1720	8.8780487804878
8	432650	1740	8.8292682926829
8	438082	1760	9.025
8	443412	1780	9.4358974358974
8	448741	1800	9.175
8	453673	1820	8.7027027027027
8	457905	1840	8.1176470588235
8	461686	1860	8.258064516129
8	465000	1880	8.1071428571429
8	467944	1900	8
8	470463	1920	7.6666666666667
8	472489	1940	7.9411764705882
8	474031	1960	7.2142857142857
8	475096	1980	6.5454545454545
8	475698	2000	5.375
9	34230	240	1.6050695664333
9	39514	260	2.0251467878144
9	44856	280	2.1730051126291
9	50237	300	1.5637596137369
9	55631	320	1.2234356835547
9	60991	340	1.7080127904403
9	66326	360	1.6213820931655
9	71472	380	1.5455303192145
9	76834	400	1.4568582283242
9	82226	420	1.8836339673824
9	87437	440	2.0753436539646
9	92768	460	1.8673991236957
9	98233	480	1.7216569240422
9	103537	500	1.575795324331
9	108829	520	1.4641003188271
9	113991	540	1.5420336398045
9	119312	560	2.0151668506348
9	124655	580	1.8649527555645
9	130083	600	1.7475257233718
9	135402	620	2.2333394005499
9	140664	640	2.2324816592694
9	145961	660	1.8678930350113
9	151280	680	1.9184597480474
9	156495	700	1.620185174602
9	161812	720	1.4710889042143
9	166986	740	1.7529616350414
9	172355	760	2.2848441567233
9	177642	780	1.5555937113758
9	182923	800	2
9	188256	820	2.0024665394407
9	193621	840	2.1541225365422
9	198952	860	1.5356865999719
9	204293	880	1.950509466649
9	209652	900	1.8971976634919
9	215009	920	1.890605787546
9	220244	940	1.8209309360007
9	225578	960	2.054257289009
9	230858	980	1.9767883821219
9	236171	1000	1.6486202467363
9	241411	1020	1.592407762833
9	246711	1040	1.7967206594808
9	252046	1060	1.9556048281548
9	257385	1080	1.9819305690381
9	262770	1100	1.575795324331
9	268107	1120	1.5256356388614
9	273393	1140	1.6416064677236
9	278728	1160	1.6164221332376
9	284104	1180	1.8803982120544
9	289419	1200	1.4934817725296
9	294781	1220	1.3876746829286
9	300150	1240	2.2011637720123
9	305528	1260	1.9390090504072
9	310808	1280	1.6478424121816
9	316085	1300	1.3412383747372
9	321298	1320	1.3286015904833
9	326495	1340	2.1589111690613
9	331787	1360	1.3660254906207
9	337106	1380	1.4662878298615
9	342414	1400	1.7886752009124
9	347775	1420	2.4124410448489
9	353095	1440	1.8192735081787
9	358417	1460	1.2554872811345
9	363715	1480	1.5930538323674
9	369155	1500	1.8425177868536
9	374376	1520	1.335187644447
9	379716	1540	1.676220927918
9	385105	1560	1.7086580099955
9	390363	1580	2.1118134618287
9	395620	1600	2.0062402647739
9	400901	1620	2.0689339778925
9	406257	1640	1.6704023175388
9	411600	1660	1.3865193462177
9	416805	1680	2.1284942576568
9	422047	1700	1.9552690155262
9	427319	1720	1.676232709847
9	432650	1740	2.084495610746
9	438082	1760	1.9412855904245
9	443412	1780	1.3916077751041
9	448741	1800	1.6312257464549
9	453673	1820	1.4503805030417
9	457905	1840	1.4927035850663
9	461686	1860	1.5909691372553
9	465000	1880	1.547741142925
9	467944	1900	1.8650096164806
9	470463	1920	1.8257418583506
9	472489	1940	1.7843271923646
9	474031	1960	1.1217137594956
9	475096	1980	1.0357254813546
9	475698	2000	0.9161253813129
10	34230	240	2.5762483130904
10	39514	260	4.1012195121951
10	44856	280	4.7219512195122
10	50237	300	2.4453441295547
10	55631	320	1.4967948717949
10	60991	340	2.9173076923077
10	66326	360	2.6288798920378
10	71472	380	2.3886639676113
10	76834	400	2.1224358974359
10	82226	420	3.5480769230769
10	87437	440	4.3070512820513
10	92768	460	3.4871794871795
10	98233	480	2.9641025641026
10	103537	500	2.4831309041835
10	108829	520	2.1435897435897
10	113991	540	2.3778677462888
10	119312	560	4.0608974358974
10	124655	580	3.4780487804878
10	130083	600	3.0538461538462
10	135402	620	4.9878048780488
10	140664	640	4.9839743589744
10	145961	660	3.4890243902439
10	151280	680	3.680487804878
10	156495	700	2.625
10	161812	720	2.1641025641026
10	166986	740	3.0728744939271
10	172355	760	5.2205128205128
10	177642	780	2.4198717948718
10	182923	800	4
10	188256	820	4.0098722415796
10	193621	840	4.640243902439
10	198952	860	2.3583333333333
10	204293	880	3.8044871794872
10	209652	900	3.599358974359
10	215009	920	3.5743902439024
10	220244	940	3.3157894736842
10	225578	960	4.2199730094467
10	230858	980	3.9076923076923
10	236171	1000	2.7179487179487
10	241411	1020	2.5357624831309
10	246711	1040	3.2282051282051
10	252046	1060	3.8243902439024
10	257385	1080	3.9280487804878
10	262770	1100	2.4831309041835
10	268107	1120	2.3275641025641
10	273393	1140	2.6948717948718
10	278728	1160	2.6128205128205
10	284104	1180	3.5358974358974
10	289419	1200	2.230487804878
10	294781	1220	1.925641025641
10	300150	1240	4.8451219512195
10	305528	1260	3.759756097561
10	310808	1280	2.7153846153846
10	316085	1300	1.7989203778677
10	321298	1320	1.7651821862348
10	326495	1340	4.6608974358974
10	331787	1360	1.8660256410256
10	337106	1380	2.15
10	342414	1400	3.199358974359
10	347775	1420	5.8198717948718
10	353095	1440	3.309756097561
10	358417	1460	1.5762483130904
10	363715	1480	2.5378205128205
10	369155	1500	3.3948717948718
10	374376	1520	1.7827260458839
10	379716	1540	2.8097165991903
10	385105	1560	2.919512195122
10	390363	1580	4.459756097561
10	395620	1600	4.025
10	400901	1620	4.280487804878
10	406257	1640	2.790243902439
10	411600	1660	1.9224358974359
10	416805	1680	4.530487804878
10	422047	1700	3.8230769230769
10	427319	1720	2.809756097561
10	432650	1740	4.3451219512195
10	438082	1760	3.7685897435897
10	443412	1780	1.9365721997301
10	448741	1800	2.6608974358974
10	453673	1820	2.1036036036036
10	457905	1840	2.2281639928699
10	461686	1860	2.5311827956989
10	465000	1880	2.3955026455026
10	467944	1900	3.4782608695652
10	470463	1920	3.3333333333333
10	472489	1940	3.1838235294118
10	474031	1960	1.2582417582418
10	475096	1980	1.0727272727273
10	475698	2000	0.83928571428571
11	34230	240	278.18790615073
11	39514	260	227.87577125989
11	44856	280	273.20962515391
11	50237	300	185.49363286498
11	55631	320	425.39948164082
11	60991	340	92.01233429222
11	66326	360	230.08079421213
11	71472	380	139.37957908813
11	76834	400	137.94474305449
11	82226	420	278.53284299191
11	87437	440	362.92097257742
11	92768	460	89.056395402893
11	98233	480	284.23140282189
11	103537	500	183.92307946101
11	108829	520	236.53297029046
11	113991	540	332.85666948821
11	119312	560	0
11	124655	580	281.16370649917
11	130083	600	139.667966566
11	135402	620	186.81929057402
11	140664	640	0
11	145961	660	376.1974754208
11	151280	680	186.27718334466
11	156495	700	229.4413068117
11	161812	720	326.92240265107
11	166986	740	93.680403199225
11	172355	760	278.09208246668
11	177642	780	279.12060756995
11	182923	800	90.707499351217
11	188256	820	90.917890154408
11	193621	840	90.957773849505
11	198952	860	317.0884851405
11	204293	880	182.56861418575
11	209652	900	134.71381155504
11	215009	920	274.43427814685
11	220244	940	189.38790479163
11	225578	960	275.4641412826
11	230858	980	418.19373321826
11	236171	1000	187.28748578065
11	241411	1020	327.03203648483
11	246711	1040	320.65449235951
11	252046	1060	44.208558467823
11	257385	1080	89.861393034337
11	262770	1100	87.584911604904
11	268107	1120	45.526597200084
11	273393	1140	277.49312111553
11	278728	1160	321.38326836666
11	284104	1180	331.98722589687
11	289419	1200	371.26765717524
11	294781	1220	424.78954740363
11	300150	1240	45.428452214094
11	305528	1260	231.64554389421
11	310808	1280	275.00410270082
11	316085	1300	184.85392784215
11	321298	1320	375.84186637456
11	326495	1340	192.90181565794
11	331787	1360	134.6474456099
11	337106	1380	275.53372433907
11	342414	1400	234.40941142177
11	347775	1420	371.76651492249
11	353095	1440	232.91649554324
11	358417	1460	135.0573847055
11	363715	1480	327.56633498949
11	369155	1500	138.75258913568
11	374376	1520	364.57685408164
11	379716	1540	231.71842947309
11	385105	1560	139.13486287569
11	390363	1580	44.518913088612
11	395620	1600	373.93715914075
11	400901	1620	322.8246771448
11	406257	1640	90.96155373576
11	411600	1660	275.25750187165
11	416805	1680	187.24556485339
11	422047	1700	138.09927763143
11	427319	1720	185.68823237078
11	432650	1740	278.30004584587
11	438082	1760	91.315317724776
11	443412	1780	92.769936622066
11	448741	1800	186.28243542614
11	453673	1820	181.08106864214
11	457905	1840	140.05885844086
11	461686	1860	183.02649596182
11	465000	1880	184.31676175318
11	467944	1900	0
11	470463	1920	136.62124886936
11	472489	1940	95.642673046412
11	474031	1960	46.179641191244
11	475096	1980	52.162292149842
11	475698	2000	46.861099305283
12	34230	240	46.364651025121
12	39514	260	45.575154251978
12	44856	280	45.534937525652
12	50237	300	46.373408216245
12	55631	320	47.266609071202
12	60991	340	46.00616714611
12	66326	360	46.016158842427
12	71472	380	46.459859696044
12	76834	400	45.981581018164
12	82226	420	46.422140498652
12	87437	440	45.365121572177
12	92768	460	44.528197701446
12	98233	480	47.371900470315
12	103537	500	45.980769865252
12	108829	520	47.306594058092
12	113991	540	47.55095278403
12	119312	560	nan
12	124655	580	46.860617749861
12	130083	600	46.555988855332
12	135402	620	46.704822643504
12	140664	640	nan
12	145961	660	47.0246844276
12	151280	680	46.569295836166
12	156495	700	45.88826136234
12	161812	720	46.703200378725
12	166986	740	46.840201599613
12	172355	760	46.348680411114
12	177642	780	46.520101261658
12	182923	800	45.353749675609
12	188256	820	45.458945077204
12	193621	840	45.478886924753
12	198952	860	45.298355020071
12	204293	880	45.642153546437
12	209652	900	44.90460385168
12	215009	920	45.739046357808
12	220244	940	47.346976197908
12	225578	960	45.910690213766
12	230858	980	46.465970357584
12	236171	1000	46.821871445163
12	241411	1020	46.718862354976
12	246711	1040	45.807784622787
12	252046	1060	44.208558467823
12	257385	1080	44.930696517169
12	262770	1100	43.792455802452
12	268107	1120	45.526597200084
12	273393	1140	46.248853519255
12	278728	1160	45.911895480952
12	284104	1180	47.426746556696
12	289419	1200	46.408457146905
12	294781	1220	47.198838600404
12	300150	1240	45.428452214094
12	305528	1260	46.329108778841
12	310808	1280	45.834017116803
12	316085	1300	46.213481960538
12	321298	1320	46.98023329682
12	326495	1340	48.225453914486
12	331787	1360	44.882481869967
12	337106	1380	45.922287389845
12	342414	1400	46.881882284355
12	347775	1420	46.470814365311
12	353095	1440	46.583299108647
12	358417	1460	45.019128235166
12	363715	1480	46.795190712784
12	369155	1500	46.250863045227
12	374376	1520	45.572106760205
12	379716	1540	46.343685894618
12	385105	1560	46.378287625232
12	390363	1580	44.518913088612
12	395620	1600	46.742144892593
12	400901	1620	46.117811020685
12	406257	1640	45.48077686788
12	411600	1660	45.876250311942
12	416805	1680	46.811391213348
12	422047	1700	46.03309254381
12	427319	1720	46.422058092694
12	432650	1740	46.383340974311
12	438082	1760	45.657658862388
12	443412	1780	46.384968311033
12	448741	1800	46.570608856536
12	453673	1820	45.270267160535
12	457905	1840	46.686286146952
12	461686	1860	45.756623990454
12	465000	1880	46.079190438294
12	467944	1900	nan
12	470463	1920	45.540416289786
12	472489	1940	47.821336523206
12	474031	1960	46.179641191244
12	475096	1980	52.162292149842
12	475698	2000	46.861099305283
13	34230	240	0.87088261613386
13	39514	260	1.5354157402619
13	44856	280	1.2224294320197
13	50237	300	2.3263341015873
13	55631	320	1.5748767273762
13	60991	340	0.9660377413063
13	66326	360	1.0521735571893
13	71472	380	3.1849146891234
13	76834	400	1.2319477102443
13	82226	420	1.2539296556422
13	87437	440	2.2105063587485
13	92768	460	1.0119390624664
13	98233	480	2.1251363478158
13	103537	500	0.54418038309438
13	108829	520	2.2372200470768
13	113991	540	1.6913447714914
13	119312	560	nan
13	124655	580	2.5144027283908
13	130083	600	1.2501835878032
13	135402	620	1.7652753245218
13	140664	640	nan
13	145961	660	1.6192384680998
13	151280	680	0.63221941848383
13	156495	700	0.92404514611509
13	161812	720	1.592580758943
13	166986	740	2.805166318445
13	172355	760	1.5707551375097
13	177642	780	2.5765662793043
13	182923	800	1.4268735188908
13	188256	820	0.28644833883369
13	193621	840	0.30938880636155
13	198952	860	1.1943815936944
13	204293	880	0.79272379618969
13	209652	900	0.57210039799581
13	215009	920	0.71900780454745
13	220244	940	1.948477953492
13	225578	960	3.1980654720247
13	230858	980	2.8626082535898
13	236171	1000	1.3429791590088
13	241411	1020	1.1015222731428
13	246711	1040	0.38464851803348
13	252046	1060	nan
13	257385	1080	1.1355336208582
13	262770	1100	0.23822722382571
13	268107	1120	nan
13	273393	1140	0.96884144565813
13	278728	1160	1.3658017534823
13	284104	1180	3.8573849249748
13	289419	1200	1.6847643259219
13	294781	1220	2.255990811988
13	300150	1240	nan
13	305528	1260	0.9072705577811
13	310808	1280	1.1877971857317