version 2
run statisticRVV-105-20150325-04:44:52-6228
attr c 5
attr configname statisticRVV
attr datetime 20150325-04:44:52
attr experiment statisticRVV
attr inifile omnetpp.ini
attr iterationvars "$sc=\"erlangen-low.launchd.xml\", $p=1/5, $c=5"
attr iterationvars2 "$sc=\"erlangen-low.launchd.xml\", $p=1/5, $c=5, $repetition=5"
attr measurement "$sc=\"erlangen-low.launchd.xml\", $p=1/5, $c=5"
attr network RSUExampleScenario
attr p 1/5
attr processid 6228
attr repetition 5
attr replication #5
attr resultdir results
attr runnumber 105
attr sc "\"erlangen-low.launchd.xml\""
attr seedset 105

vector 0  RSUExampleScenario.rsu[0].appl  Number_CH  ETV
vector 1  RSUExampleScenario.rsu[0].appl  Number_ON  ETV
vector 2  RSUExampleScenario.rsu[0].appl  Number_FN  ETV
vector 3  RSUExampleScenario.rsu[0].appl  Number_CH_Losts  ETV
vector 4  RSUExampleScenario.rsu[0].appl  Mean_Cluster_Size  ETV
vector 5  RSUExampleScenario.rsu[0].appl  StdDev_Cluster_Size  ETV
vector 6  RSUExampleScenario.rsu[0].appl  Variance_Cluster_Size  ETV
vector 7  RSUExampleScenario.rsu[0].appl  Mean_Neighbors  ETV
vector 8  RSUExampleScenario.rsu[0].appl  StdDev_Neighbors  ETV
vector 9  RSUExampleScenario.rsu[0].appl  Variance_Neighbors  ETV
vector 10  RSUExampleScenario.rsu[0].appl  Total_CH_Utility  ETV
vector 11  RSUExampleScenario.rsu[0].appl  Mean_CH_Utility  ETV
vector 12  RSUExampleScenario.rsu[0].appl  StdDev_CH_Utility  ETV
vector 13  RSUExampleScenario.rsu[0].appl  Variance_CH_Utility  ETV
vector 14  RSUExampleScenario.rsu[0].appl  Total_exp_CH_Utility  ETV
vector 15  RSUExampleScenario.rsu[0].appl  Mean_exp_CH_Utility  ETV
vector 16  RSUExampleScenario.rsu[0].appl  StdDev_exp_CH_Utility  ETV
vector 17  RSUExampleScenario.rsu[0].appl  Variance_exp_CH_Utility  ETV
vector 18  RSUExampleScenario.rsu[0].appl  Total_ON_Utility  ETV
vector 19  RSUExampleScenario.rsu[0].appl  Mean_ON_Utility  ETV
vector 20  RSUExampleScenario.rsu[0].appl  StdDev_ON_Utility  ETV
vector 21  RSUExampleScenario.rsu[0].appl  Variance_ON_Utility  ETV
vector 22  RSUExampleScenario.rsu[0].appl  Total_exp_ON_Utility  ETV
vector 23  RSUExampleScenario.rsu[0].appl  Mean_exp_ON_Utility  ETV
vector 24  RSUExampleScenario.rsu[0].appl  StdDev_exp_ON_Utility  ETV
vector 25  RSUExampleScenario.rsu[0].appl  Variance_exp_ON_Utility  ETV
0	34505	240	6
0	39801	260	5
0	45209	280	3
0	50414	300	5
0	55745	320	7
0	61109	340	7
0	66472	360	7
0	71778	380	3
0	77099	400	8
0	82473	420	5
0	87772	440	8
0	93101	460	3
0	98362	480	5
0	103652	500	4
0	109018	520	7
0	114241	540	3
0	119487	560	9
0	124745	580	7
0	129973	600	11
0	135324	620	4
0	140605	640	5
0	145952	660	6
0	151347	680	7
0	156791	700	4
0	162173	720	7
0	167541	740	5
0	172876	760	5
0	178168	780	5
0	183444	800	4
0	188862	820	9
0	194180	840	5
0	199403	860	6
0	204732	880	8
0	210048	900	10
0	215279	920	4
0	220657	940	5
0	226104	960	5
0	231455	980	8
0	236760	1000	8
0	242053	1020	7
0	247461	1040	6
0	252796	1060	3
0	258084	1080	3
0	263358	1100	6
0	268770	1120	7
0	274061	1140	3
0	279433	1160	4
0	284734	1180	7
0	289980	1200	5
0	295202	1220	12
0	300614	1240	9
0	305860	1260	7
0	311142	1280	4
0	316352	1300	3
0	321735	1320	4
0	327115	1340	7
0	332339	1360	4
0	337613	1380	5
0	342953	1400	6
0	348355	1420	6
0	353704	1440	6
0	359078	1460	3
0	364316	1480	5
0	369659	1500	7
0	375031	1520	5
0	380275	1540	6
0	385661	1560	8
0	391028	1580	3
0	396254	1600	5
0	401553	1620	6
0	406752	1640	7
0	412127	1660	6
0	417516	1680	5
0	422818	1700	7
0	428127	1720	9
0	433452	1740	9
0	438769	1760	10
0	444067	1780	5
0	449424	1800	5
0	454312	1820	9
0	458588	1840	7
0	462381	1860	9
0	465642	1880	3
0	468565	1900	6
0	471080	1920	2
0	473040	1940	4
0	474590	1960	3
0	475598	1980	1
0	476180	2000	2
1	34505	240	6
1	39801	260	7
1	45209	280	3
1	50414	300	7
1	55745	320	10
1	61109	340	12
1	66472	360	10
1	71778	380	4
1	77099	400	11
1	82473	420	7
1	87772	440	9
1	93101	460	3
1	98362	480	6
1	103652	500	5
1	109018	520	9
1	114241	540	3
1	119487	560	11
1	124745	580	8
1	129973	600	12
1	135324	620	7
1	140605	640	6
1	145952	660	7
1	151347	680	9
1	156791	700	5
1	162173	720	10
1	167541	740	6
1	172876	760	7
1	178168	780	6
1	183444	800	5
1	188862	820	13
1	194180	840	6
1	199403	860	9
1	204732	880	12
1	210048	900	12
1	215279	920	8
1	220657	940	7
1	226104	960	8
1	231455	980	10
1	236760	1000	11
1	242053	1020	9
1	247461	1040	9
1	252796	1060	4
1	258084	1080	3
1	263358	1100	10
1	268770	1120	9
1	274061	1140	5
1	279433	1160	6
1	284734	1180	8
1	289980	1200	8
1	295202	1220	14
1	300614	1240	14
1	305860	1260	9
1	311142	1280	6
1	316352	1300	5
1	321735	1320	5
1	327115	1340	8
1	332339	1360	5
1	337613	1380	8
1	342953	1400	8
1	348355	1420	8
1	353704	1440	8
1	359078	1460	3
1	364316	1480	6
1	369659	1500	9
1	375031	1520	6
1	380275	1540	8
1	385661	1560	12
1	391028	1580	4
1	396254	1600	9
1	401553	1620	9
1	406752	1640	10
1	412127	1660	7
1	417516	1680	5
1	422818	1700	8
1	428127	1720	13
1	433452	1740	11
1	438769	1760	11
1	444067	1780	7
1	449424	1800	6
1	454312	1820	12
1	458588	1840	8
1	462381	1860	12
1	465642	1880	5
1	468565	1900	9
1	471080	1920	3
1	473040	1940	5
1	474590	1960	4
1	475598	1980	1
1	476180	2000	4
2	34505	240	28
2	39801	260	27
2	45209	280	34
2	50414	300	27
2	55745	320	23
2	61109	340	22
2	66472	360	24
2	71778	380	33
2	77099	400	21
2	82473	420	29
2	87772	440	24
2	93101	460	35
2	98362	480	29
2	103652	500	31
2	109018	520	25
2	114241	540	33
2	119487	560	21
2	124745	580	25
2	129973	600	17
2	135324	620	30
2	140605	640	28
2	145952	660	28
2	151347	680	25
2	156791	700	31
2	162173	720	23
2	167541	740	29
2	172876	760	29
2	178168	780	30
2	183444	800	32
2	188862	820	18
2	194180	840	29
2	199403	860	25
2	204732	880	21
2	210048	900	19
2	215279	920	29
2	220657	940	29
2	226104	960	28
2	231455	980	23
2	236760	1000	21
2	242053	1020	24
2	247461	1040	25
2	252796	1060	34
2	258084	1080	34
2	263358	1100	24
2	268770	1120	25
2	274061	1140	33
2	279433	1160	31
2	284734	1180	25
2	289980	1200	28
2	295202	1220	13
2	300614	1240	18
2	305860	1260	24
2	311142	1280	31
2	316352	1300	32
2	321735	1320	31
2	327115	1340	26
2	332339	1360	32
2	337613	1380	27
2	342953	1400	27
2	348355	1420	26
2	353704	1440	27
2	359078	1460	34
2	364316	1480	30
2	369659	1500	24
2	375031	1520	29
2	380275	1540	26
2	385661	1560	20
2	391028	1580	34
2	396254	1600	25
2	401553	1620	25
2	406752	1640	23
2	412127	1660	28
2	417516	1680	30
2	422818	1700	25
2	428127	1720	17
2	433452	1740	21
2	438769	1760	20
2	444067	1780	28
2	449424	1800	30
2	454312	1820	17
2	458588	1840	18
2	462381	1860	10
2	465642	1880	19
2	468565	1900	9
2	471080	1920	15
2	473040	1940	8
2	474590	1960	8
2	475598	1980	9
2	476180	2000	2
3	34505	240	3
3	39801	260	3
3	45209	280	0
3	50414	300	2
3	55745	320	1
3	61109	340	5
3	66472	360	3
3	71778	380	0
3	77099	400	2
3	82473	420	2
3	87772	440	4
3	93101	460	1
3	98362	480	1
3	103652	500	2
3	109018	520	3
3	114241	540	1
3	119487	560	3
3	124745	580	3
3	129973	600	1
3	135324	620	3
3	140605	640	2
3	145952	660	3
3	151347	680	3
3	156791	700	0
3	162173	720	2
3	167541	740	5
3	172876	760	0
3	178168	780	3
3	183444	800	1
3	188862	820	1
3	194180	840	4
3	199403	860	2
3	204732	880	0
3	210048	900	2
3	215279	920	2
3	220657	940	2
3	226104	960	0
3	231455	980	3
3	236760	1000	2
3	242053	1020	0
3	247461	1040	1
3	252796	1060	2
3	258084	1080	4
3	263358	1100	3
3	268770	1120	2
3	274061	1140	1
3	279433	1160	4
3	284734	1180	2
3	289980	1200	1
3	295202	1220	0
3	300614	1240	3
3	305860	1260	1
3	311142	1280	3
3	316352	1300	1
3	321735	1320	1
3	327115	1340	5
3	332339	1360	2
3	337613	1380	3
3	342953	1400	2
3	348355	1420	0
3	353704	1440	1
3	359078	1460	2
3	364316	1480	1
3	369659	1500	4
3	375031	1520	4
3	380275	1540	5
3	385661	1560	5
3	391028	1580	2
3	396254	1600	2
3	401553	1620	1
3	406752	1640	3
3	412127	1660	1
3	417516	1680	0
3	422818	1700	2
3	428127	1720	1
3	433452	1740	5
3	438769	1760	0
3	444067	1780	1
3	449424	1800	1
3	454312	1820	3
3	458588	1840	1
3	462381	1860	4
3	465642	1880	0
3	468565	1900	0
3	471080	1920	0
3	473040	1940	1
3	474590	1960	0
3	475598	1980	0
3	476180	2000	0
4	34505	240	1
4	39801	260	1.4
4	45209	280	1
4	50414	300	1.4
4	55745	320	1.4285714285714
4	61109	340	1.7142857142857
4	66472	360	1.4285714285714
4	71778	380	1.3333333333333
4	77099	400	1.375
4	82473	420	1.4
4	87772	440	1.125
4	93101	460	1
4	98362	480	1.2
4	103652	500	1.25
4	109018	520	1.2857142857143
4	114241	540	1
4	119487	560	1.2222222222222
4	124745	580	1.1428571428571
4	129973	600	1.0909090909091
4	135324	620	1.75
4	140605	640	1.2
4	145952	660	1.1666666666667
4	151347	680	1.2857142857143
4	156791	700	1.25
4	162173	720	1.4285714285714
4	167541	740	1.2
4	172876	760	1.4
4	178168	780	1.2
4	183444	800	1.25
4	188862	820	1.4444444444444
4	194180	840	1.2
4	199403	860	1.5
4	204732	880	1.5
4	210048	900	1.2
4	215279	920	2
4	220657	940	1.4
4	226104	960	1.6
4	231455	980	1.25
4	236760	1000	1.375
4	242053	1020	1.2857142857143
4	247461	1040	1.5
4	252796	1060	1.3333333333333
4	258084	1080	1
4	263358	1100	1.6666666666667
4	268770	1120	1.2857142857143
4	274061	1140	1.6666666666667
4	279433	1160	1.5
4	284734	1180	1.1428571428571
4	289980	1200	1.6
4	295202	1220	1.1666666666667
4	300614	1240	1.5555555555556
4	305860	1260	1.2857142857143
4	311142	1280	1.5
4	316352	1300	1.6666666666667
4	321735	1320	1.25
4	327115	1340	1.1428571428571
4	332339	1360	1.25
4	337613	1380	1.6
4	342953	1400	1.3333333333333
4	348355	1420	1.3333333333333
4	353704	1440	1.3333333333333
4	359078	1460	1
4	364316	1480	1.2
4	369659	1500	1.2857142857143
4	375031	1520	1.2
4	380275	1540	1.3333333333333
4	385661	1560	1.5
4	391028	1580	1.3333333333333
4	396254	1600	1.8
4	401553	1620	1.5
4	406752	1640	1.4285714285714
4	412127	1660	1.1666666666667
4	417516	1680	1
4	422818	1700	1.1428571428571
4	428127	1720	1.4444444444444
4	433452	1740	1.2222222222222
4	438769	1760	1.1
4	444067	1780	1.4
4	449424	1800	1.2
4	454312	1820	1.3333333333333
4	458588	1840	1.1428571428571
4	462381	1860	1.3333333333333
4	465642	1880	1.6666666666667
4	468565	1900	1.5
4	471080	1920	1.5
4	473040	1940	1.25
4	474590	1960	1.3333333333333
4	475598	1980	1
4	476180	2000	2
5	34505	240	0
5	39801	260	0.54772255750517
5	45209	280	0
5	50414	300	0.54772255750517
5	55745	320	0.53452248382485
5	61109	340	0.48795003647427
5	66472	360	0.53452248382485
5	71778	380	0.57735026918963
5	77099	400	0.51754916950677
5	82473	420	0.54772255750517
5	87772	440	0.35355339059327
5	93101	460	0
5	98362	480	0.44721359549996
5	103652	500	0.5
5	109018	520	0.48795003647427
5	114241	540	0
5	119487	560	0.4409585518441
5	124745	580	0.37796447300923
5	129973	600	0.30151134457776
5	135324	620	0.5
5	140605	640	0.44721359549996
5	145952	660	0.40824829046386
5	151347	680	0.48795003647427
5	156791	700	0.5
5	162173	720	0.53452248382485
5	167541	740	0.44721359549996
5	172876	760	0.54772255750517
5	178168	780	0.44721359549996
5	183444	800	0.5
5	188862	820	0.52704627669473
5	194180	840	0.44721359549996
5	199403	860	0.54772255750517
5	204732	880	0.75592894601845
5	210048	900	0.42163702135578
5	215279	920	0
5	220657	940	0.54772255750517
5	226104	960	0.54772255750517
5	231455	980	0.46291004988628
5	236760	1000	0.51754916950677
5	242053	1020	0.48795003647427
5	247461	1040	0.54772255750517
5	252796	1060	0.57735026918963
5	258084	1080	0
5	263358	1100	0.51639777949432
5	268770	1120	0.48795003647427
5	274061	1140	0.57735026918963
5	279433	1160	0.57735026918963
5	284734	1180	0.37796447300923
5	289980	1200	0.54772255750517
5	295202	1220	0.38924947208076
5	300614	1240	0.52704627669473
5	305860	1260	0.48795003647427
5	311142	1280	0.57735026918963
5	316352	1300	0.57735026918963
5	321735	1320	0.5
5	327115	1340	0.37796447300923
5	332339	1360	0.5
5	337613	1380	0.54772255750517
5	342953	1400	0.51639777949432
5	348355	1420	0.51639777949432
5	353704	1440	0.51639777949432
5	359078	1460	0
5	364316	1480	0.44721359549996
5	369659	1500	0.48795003647427
5	375031	1520	0.44721359549996
5	380275	1540	0.51639777949432
5	385661	1560	0.75592894601845
5	391028	1580	0.57735026918963
5	396254	1600	0.44721359549996
5	401553	1620	0.54772255750517
5	406752	1640	0.53452248382485
5	412127	1660	0.40824829046386
5	417516	1680	0
5	422818	1700	0.37796447300923
5	428127	1720	0.52704627669473
5	433452	1740	0.4409585518441
5	438769	1760	0.31622776601684
5	444067	1780	0.54772255750517
5	449424	1800	0.44721359549996
5	454312	1820	0.5
5	458588	1840	0.37796447300923
5	462381	1860	0.5
5	465642	1880	0.57735026918963
5	468565	1900	0.54772255750517
5	471080	1920	0.70710678118655
5	473040	1940	0.5
5	474590	1960	0.57735026918963
5	475598	1980	nan
5	476180	2000	0
6	34505	240	0
6	39801	260	0.3
6	45209	280	0
6	50414	300	0.3
6	55745	320	0.28571428571429
6	61109	340	0.23809523809524
6	66472	360	0.28571428571429
6	71778	380	0.33333333333333
6	77099	400	0.26785714285714
6	82473	420	0.3
6	87772	440	0.125
6	93101	460	0
6	98362	480	0.2
6	103652	500	0.25
6	109018	520	0.23809523809524
6	114241	540	0
6	119487	560	0.19444444444444
6	124745	580	0.14285714285714
6	129973	600	0.090909090909091
6	135324	620	0.25
6	140605	640	0.2
6	145952	660	0.16666666666667
6	151347	680	0.23809523809524
6	156791	700	0.25
6	162173	720	0.28571428571429
6	167541	740	0.2
6	172876	760	0.3
6	178168	780	0.2
6	183444	800	0.25
6	188862	820	0.27777777777778
6	194180	840	0.2
6	199403	860	0.3
6	204732	880	0.57142857142857
6	210048	900	0.17777777777778
6	215279	920	0
6	220657	940	0.3
6	226104	960	0.3
6	231455	980	0.21428571428571
6	236760	1000	0.26785714285714
6	242053	1020	0.23809523809524
6	247461	1040	0.3
6	252796	1060	0.33333333333333
6	258084	1080	0
6	263358	1100	0.26666666666667
6	268770	1120	0.23809523809524
6	274061	1140	0.33333333333333
6	279433	1160	0.33333333333333
6	284734	1180	0.14285714285714
6	289980	1200	0.3
6	295202	1220	0.15151515151515
6	300614	1240	0.27777777777778
6	305860	1260	0.23809523809524
6	311142	1280	0.33333333333333
6	316352	1300	0.33333333333333
6	321735	1320	0.25
6	327115	1340	0.14285714285714
6	332339	1360	0.25
6	337613	1380	0.3
6	342953	1400	0.26666666666667
6	348355	1420	0.26666666666667
6	353704	1440	0.26666666666667
6	359078	1460	0
6	364316	1480	0.2
6	369659	1500	0.23809523809524
6	375031	1520	0.2
6	380275	1540	0.26666666666667
6	385661	1560	0.57142857142857
6	391028	1580	0.33333333333333
6	396254	1600	0.2
6	401553	1620	0.3
6	406752	1640	0.28571428571429
6	412127	1660	0.16666666666667
6	417516	1680	0
6	422818	1700	0.14285714285714
6	428127	1720	0.27777777777778
6	433452	1740	0.19444444444444
6	438769	1760	0.1
6	444067	1780	0.3
6	449424	1800	0.2
6	454312	1820	0.25
6	458588	1840	0.14285714285714
6	462381	1860	0.25
6	465642	1880	0.33333333333333
6	468565	1900	0.3
6	471080	1920	0.5
6	473040	1940	0.25
6	474590	1960	0.33333333333333
6	475598	1980	nan
6	476180	2000	0
7	34505	240	8.825
7	39801	260	9
7	45209	280	9.2307692307692
7	50414	300	8.9487179487179
7	55745	320	9.1538461538462
7	61109	340	8.7560975609756
7	66472	360	9
7	71778	380	8.975
7	77099	400	9.075
7	82473	420	8.8292682926829
7	87772	440	8.7073170731707
7	93101	460	9
7	98362	480	9.1
7	103652	500	8.825
7	109018	520	9.025
7	114241	540	9.1282051282051
7	119487	560	8.8536585365854
7	124745	580	8.925
7	129973	600	8.775
7	135324	620	8.9
7	140605	640	9.0769230769231
7	145952	660	8.9024390243902
7	151347	680	9.0731707317073
7	156791	700	8.95
7	162173	720	9.075
7	167541	740	8.95
7	172876	760	8.8048780487805
7	178168	780	8.7073170731707
7	183444	800	9.075
7	188862	820	9
7	194180	840	8.9
7	199403	860	8.975
7	204732	880	8.875
7	210048	900	9
7	215279	920	8.8780487804878
7	220657	940	8.7073170731707
7	226104	960	9.219512195122
7	231455	980	9.2
7	236760	1000	8.7
7	242053	1020	9.1
7	247461	1040	9.125
7	252796	1060	8.975
7	258084	1080	9
7	263358	1100	8.95
7	268770	1120	8.95
7	274061	1140	8.780487804878
7	279433	1160	8.8536585365854
7	284734	1180	9.075
7	289980	1200	8.780487804878
7	295202	1220	8.7948717948718
7	300614	1240	8.9268292682927
7	305860	1260	9.2051282051282
7	311142	1280	9.075
7	316352	1300	8.75
7	321735	1320	9.05
7	327115	1340	8.9756097560976
7	332339	1360	8.7073170731707
7	337613	1380	8.975
7	342953	1400	8.9756097560976
7	348355	1420	8.925
7	353704	1440	9.0731707317073
7	359078	1460	9.3333333333333
7	364316	1480	8.7560975609756
7	369659	1500	8.825
7	375031	1520	8.95
7	380275	1540	8.85
7	385661	1560	9.075
7	391028	1580	8.8292682926829
7	396254	1600	9
7	401553	1620	8.875
7	406752	1640	8.7
7	412127	1660	8.8292682926829
7	417516	1680	9.1282051282051
7	422818	1700	8.95
7	428127	1720	8.8461538461538
7	433452	1740	8.8780487804878
7	438769	1760	8.7073170731707
7	444067	1780	9.1282051282051
7	449424	1800	9.0731707317073
7	454312	1820	8.9473684210526
7	458588	1840	8.3636363636364
7	462381	1860	8.4193548387097
7	465642	1880	8.1481481481481
7	468565	1900	8.0833333333333
7	471080	1920	8.15
7	473040	1940	7.6470588235294
7	474590	1960	7
7	475598	1980	6.3636363636364
7	476180	2000	5.25
8	34505	240	2.1108693068898
8	39801	260	1.6059101370939
8	45209	280	1.459299371572
8	50414	300	1.7762870493002
8	55745	320	1.4785921742704
8	61109	340	1.907622706471
8	66472	360	1.8574175621007
8	71778	380	2.0189804484645
8	77099	400	1.3660254906207
8	82473	420	1.9608982511134
8	87772	440	1.749912889818
8	93101	460	1.62788205961
8	98362	480	1.8088103471052
8	103652	500	2.0492337529816
8	109018	520	1.7466084351225
8	114241	540	1.7041665223101
8	119487	560	1.8379468927278
8	124745	580	1.6546360665779
8	129973	600	1.6561849890482
8	135324	620	1.5325527556068
8	140605	640	1.7073311796734
8	145952	660	1.8682194470776
8	151347	680	1.587297135108
8	156791	700	2.0248456731317
8	162173	720	2.1047869738119
8	167541	740	1.4667249405673
8	172876	760	1.964936540898
8	178168	780	1.9267057694291
8	183444	800	1.4030644117751
8	188862	820	2.1838568563967
8	194180	840	1.9321835661586
8	199403	860	1.4230249470758
8	204732	880	1.3622662114173
8	210048	900	2.1330729007702
8	215279	920	2.3042908014313
8	220657	940	2.1822454311904
8	226104	960	1.6048706353154
8	231455	980	1.5055453054182
8	236760	1000	1.5721942856387
8	242053	1020	1.3922864426768
8	247461	1040	1.6042811314473
8	252796	1060	1.7757266479403
8	258084	1080	1.6641005886757
8	263358	1100	1.7679482531005
8	268770	1120	1.7533850046008
8	274061	1140	2.0188139478658
8	279433	1160	2.0194179311098
8	284734	1180	1.9267017120404
8	289980	1200	2.0917958208433
8	295202	1220	1.5248725085532
8	300614	1240	1.9025015624493
8	305860	1260	1.489957385111
8	311142	1280	1.439150390388
8	316352	1300	1.7357478252386
8	321735	1320	1.5182648665922
8	327115	1340	1.6505727017925
8	332339	1360	1.9005775758835
8	337613	1380	1.4933613779418
8	342953	1400	2.0915043016696
8	348355	1420	1.8863545089228
8	353704	1440	1.7942999178292
8	359078	1460	1.4749368110164
8	364316	1480	1.593431639652
8	369659	1500	1.8658537607246
8	375031	1520	1.9074751737471
8	380275	1540	1.8749358963401
8	385661	1560	1.8311758867474
8	391028	1580	1.5636885723249
8	396254	1600	1.3954814298487
8	401553	1620	2.1145103088313
8	406752	1640	1.6824889987067
8	412127	1660	1.842585669981
8	417516	1680	1.575795324331
8	422818	1700	2.1116283666816
8	428127	1720	1.6147097105649
8	433452	1740	1.4865248392008
8	438769	1760	1.8336289488201
8	444067	1780	1.4359938274953
8	449424	1800	1.9155970857991
8	454312	1820	1.4322042814629
8	458588	1840	1.6358900829935
8	462381	1860	1.4323452458209
8	465642	1880	1.8543857308409
8	468565	1900	1.8630658852423
8	471080	1920	1.5985190514644
8	473040	1940	1.3666188418222
8	474590	1960	1.1952286093344
8	475598	1980	1.1200649331827
8	476180	2000	1.0350983390135
9	34505	240	4.4557692307692
9	39801	260	2.5789473684211
9	45209	280	2.1295546558704
9	50414	300	3.1551956815115
9	55745	320	2.1862348178138
9	61109	340	3.6390243902439
9	66472	360	3.45
9	71778	380	4.0762820512821
9	77099	400	1.8660256410256
9	82473	420	3.8451219512195
9	87772	440	3.0621951219512
9	93101	460	2.65
9	98362	480	3.2717948717949
9	103652	500	4.199358974359
9	109018	520	3.050641025641
9	114241	540	2.9041835357625
9	119487	560	3.3780487804878
9	124745	580	2.7378205128205
9	129973	600	2.7429487179487
9	135324	620	2.3487179487179
9	140605	640	2.914979757085
9	145952	660	3.490243902439
9	151347	680	2.519512195122
9	156791	700	4.1
9	162173	720	4.4301282051282
9	167541	740	2.1512820512821
9	172876	760	3.8609756097561
9	178168	780	3.7121951219512
9	183444	800	1.9685897435897
9	188862	820	4.7692307692308
9	194180	840	3.7333333333333
9	199403	860	2.025
9	204732	880	1.8557692307692
9	210048	900	4.55
9	215279	920	5.309756097561
9	220657	940	4.7621951219512
9	226104	960	2.5756097560976
9	231455	980	2.2666666666667
9	236760	1000	2.4717948717949
9	242053	1020	1.9384615384615
9	247461	1040	2.5737179487179
9	252796	1060	3.1532051282051
9	258084	1080	2.7692307692308
9	263358	1100	3.125641025641
9	268770	1120	3.074358974359
9	274061	1140	4.0756097560976
9	279433	1160	4.0780487804878
9	284734	1180	3.7121794871795
9	289980	1200	4.3756097560976
9	295202	1220	2.3252361673414
9	300614	1240	3.619512195122
9	305860	1260	2.2199730094467
9	311142	1280	2.0711538461538
9	316352	1300	3.0128205128205
9	321735	1320	2.3051282051282
9	327115	1340	2.7243902439024
9	332339	1360	3.6121951219512
9	337613	1380	2.2301282051282
9	342953	1400	4.3743902439024
9	348355	1420	3.5583333333333
9	353704	1440	3.219512195122
9	359078	1460	2.1754385964912
9	364316	1480	2.5390243902439
9	369659	1500	3.4814102564103
9	375031	1520	3.6384615384615
9	380275	1540	3.5153846153846
9	385661	1560	3.3532051282051
9	391028	1580	2.4451219512195
9	396254	1600	1.9473684210526
9	401553	1620	4.4711538461538
9	406752	1640	2.8307692307692
9	412127	1660	3.3951219512195
9	417516	1680	2.4831309041835
9	422818	1700	4.4589743589744
9	428127	1720	2.6072874493927
9	433452	1740	2.209756097561
9	438769	1760	3.3621951219512
9	444067	1780	2.0620782726046
9	449424	1800	3.669512195122
9	454312	1820	2.0512091038407
9	458588	1840	2.6761363636364
9	462381	1860	2.0516129032258
9	465642	1880	3.4387464387464
9	468565	1900	3.4710144927536
9	471080	1920	2.5552631578947
9	473040	1940	1.8676470588235
9	474590	1960	1.4285714285714
9	475598	1980	1.2545454545455
9	476180	2000	1.0714285714286
10	34505	240	287.32238532624
10	39801	260	233.94626051681
10	45209	280	147.6186999688
10	50414	300	239.0762190512
10	55745	320	333.23272805383
10	61109	340	333.65398717635
10	66472	360	317.63220379905
10	71778	380	152.95782594199
10	77099	400	383.2192573096
10	82473	420	230.95179888965
10	87772	440	390.90210672948
10	93101	460	141.57279595001
10	98362	480	234.01463263746
10	103652	500	178.90415665563
10	109018	520	329.09571347401
10	114241	540	140.78192541012
10	119487	560	420.28301211636
10	124745	580	324.21958768741
10	129973	600	512.39839311244
10	135324	620	194.8020999393
10	140605	640	232.77026577432
10	145952	660	281.26518997491
10	151347	680	335.33691612018
10	156791	700	188.28572203747
10	162173	720	328.26164740416
10	167541	740	236.2598725217
10	172876	760	228.84499800831
10	178168	780	236.75149289641
10	183444	800	185.19999036595
10	188862	820	430.28865520671
10	194180	840	228.65302907241
10	199403	860	281.96022453223
10	204732	880	380.51623843386
10	210048	900	470.49002967322
10	215279	920	188.50660444463
10	220657	940	244.91686348714
10	226104	960	235.05874285641
10	231455	980	369.59018065865
10	236760	1000	376.44480933415
10	242053	1020	328.79896422687
10	247461	1040	288.43212162247
10	252796	1060	141.04750251656
10	258084	1080	150.82343937328
10	263358	1100	288.39144944815
10	268770	1120	347.72721304108
10	274061	1140	139.49326461336
10	279433	1160	186.05162761358
10	284734	1180	329.1668681845
10	289980	1200	230.53481414524
10	295202	1220	573.31860256823
10	300614	1240	420.09377027429
10	305860	1260	335.57578419178
10	311142	1280	189.84368427333
10	316352	1300	144.90105087853
10	321735	1320	189.81930644794
10	327115	1340	336.21443991206
10	332339	1360	189.14280359843
10	337613	1380	239.83264445199
10	342953	1400	280.42531929548
10	348355	1420	283.71061374022
10	353704	1440	285.69695263372
10	359078	1460	137.00720547806
10	364316	1480	240.73122319274
10	369659	1500	336.31853136504
10	375031	1520	243.28203953214
10	380275	1540	283.14033525132
10	385661	1560	392.17208366952
10	391028	1580	144.59928594453
10	396254	1600	238.43952939971
10	401553	1620	278.50003227302
10	406752	1640	321.65338164096
10	412127	1660	282.14683539012
10	417516	1680	242.78815837916
10	422818	1700	333.21487575416
10	428127	1720	431.68636725283
10	433452	1740	431.93919977107
10	438769	1760	472.69307359948
10	444067	1780	237.30154042196
10	449424	1800	237.19251575351
10	454312	1820	425.26091609267
10	458588	1840	331.88939803395
10	462381	1860	426.38138559803
10	465642	1880	132.90189324687
10	468565	1900	285.04005519735
10	471080	1920	92.333384426242
10	473040	1940	189.39228298806
10	474590	1960	139.95287428431
10	475598	1980	46.738207768481
10	476180	2000	95.745962168179
11	34505	240	47.887064221041
11	39801	260	46.789252103363
11	45209	280	49.206233322933
11	50414	300	47.81524381024
11	55745	320	47.604675436261
11	61109	340	47.664855310907
11	66472	360	45.37602911415
11	71778	380	50.985941980662
11	77099	400	47.9024071637
11	82473	420	46.19035977793
11	87772	440	48.862763341185
11	93101	460	47.190931983336
11	98362	480	46.802926527492
11	103652	500	44.726039163909
11	109018	520	47.01367335343
11	114241	540	46.927308470041
11	119487	560	46.698112457374
11	124745	580	46.317083955345
11	129973	600	46.581672101131
11	135324	620	48.700524984825
11	140605	640	46.554053154863
11	145952	660	46.877531662486
11	151347	680	47.905273731455
11	156791	700	47.071430509368
11	162173	720	46.894521057737
11	167541	740	47.25197450434
11	172876	760	45.768999601661
11	178168	780	47.350298579282
11	183444	800	46.299997591487
11	188862	820	47.809850578524
11	194180	840	45.730605814481
11	199403	860	46.993370755372
11	204732	880	47.564529804232
11	210048	900	47.049002967322
11	215279	920	47.126651111157
11	220657	940	48.983372697428
11	226104	960	47.011748571281
11	231455	980	46.198772582331
11	236760	1000	47.055601166769
11	242053	1020	46.971280603838
11	247461	1040	48.072020270412
11	252796	1060	47.015834172186
11	258084	1080	50.274479791093
11	263358	1100	48.065241574691
11	268770	1120	49.675316148726
11	274061	1140	46.497754871121
11	279433	1160	46.512906903396
11	284734	1180	47.023838312071
11	289980	1200	46.106962829047
11	295202	1220	47.776550214019
11	300614	1240	46.677085586033
11	305860	1260	47.939397741683
11	311142	1280	47.460921068334
11	316352	1300	48.300350292844
11	321735	1320	47.454826611985
11	327115	1340	48.030634273151
11	332339	1360	47.285700899609
11	337613	1380	47.966528890399
11	342953	1400	46.737553215914
11	348355	1420	47.285102290037
11	353704	1440	47.616158772286
11	359078	1460	45.669068492686
11	364316	1480	48.146244638548
11	369659	1500	48.045504480719
11	375031	1520	48.656407906428
11	380275	1540	47.19005587522
11	385661	1560	49.02151045869
11	391028	1580	48.19976198151
11	396254	1600	47.687905879941
11	401553	1620	46.416672045504
11	406752	1640	45.950483091566
11	412127	1660	47.02447256502
11	417516	1680	48.557631675832
11	422818	1700	47.602125107737
11	428127	1720	47.965151916981
11	433452	1740	47.993244419008
11	438769	1760	47.269307359948
11	444067	1780	47.460308084393
11	449424	1800	47.438503150701
11	454312	1820	47.251212899186
11	458588	1840	47.412771147707
11	462381	1860	47.375709510893
11	465642	1880	44.300631082291
11	468565	1900	47.506675866225
11	471080	1920	46.166692213121
11	473040	1940	47.348070747014
11	474590	1960	46.65095809477
11	475598	1980	46.738207768481
11	476180	2000	47.872981084089
12	34505	240	3.3477297352598
12	39801	260	1.114210443402
12	45209	280	2.7593272405573
12	50414	300	1.4574506315802
12	55745	320	1.6360431884172
12	61109	340	1.5280798835908
12	66472	360	2.4634661057769
12	71778	380	2.6587800045105
12	77099	400	1.9612852607332
12	82473	420	0.5345745387145
12	87772	440	4.0353898741191
12	93101	460	2.2838588620415
12	98362	480	2.2424069053349
12	103652	500	2.825846639875
12	109018	520	2.5196429015962
12	114241	540	7.1463864661951
12	119487	560	1.7928081826385
12	124745	580	1.9652525375825
12	129973	600	3.3164283123112
12	135324	620	2.4448323184948
12	140605	640	1.3937001559809
12	145952	660	1.5172557153619
12	151347	680	3.8447171650311
12	156791	700	1.7423504749059
12	162173	720	1.2042827416091
12	167541	740	2.4607198844151
12	172876	760	0.82434703093589
12	178168	780	3.0383218241667
12	183444	800	1.5390700502156
12	188862	820	2.4290894824787
12	194180	840	1.0773453953145
12	199403	860	1.4493581547094
12	204732	880	2.1306354745228
12	210048	900	2.7362760124951
12	215279	920	1.4144687886775
12	220657	940	3.9617218296772
12	226104	960	2.1461377158681
12	231455	980	1.6294026309643
12	236760	1000	2.4957076791784
12	242053	1020	1.7479475758435
12	247461	1040	3.4468706023911
12	252796	1060	1.572329126267
12	258084	1080	2.641790071535
12	263358	1100	1.9455447601052
12	268770	1120	4.0066869087163
12	274061	1140	1.2942006033138
12	279433	1160	1.6125604873598
12	284734	1180	1.2928546286796
12	289980	1200	3.0469584826452
12	295202	1220	2.4748937019193
12	300614	1240	1.7451043474044
12	305860	1260	3.2014885029605
12	311142	1280	4.7302930267234
12	316352	1300	3.6654346740921
12	321735	1320	1.9764186586564
12	327115	1340	5.0830751172008
12	332339	1360	0.60140465495618
12	337613	1380	1.2140204497762
12	342953	1400	0.59946322390617
12	348355	1420	1.2190173385596
12	353704	1440	2.008014676877
12	359078	1460	0.76854952889456
12	364316	1480	1.4227428466188
12	369659	1500	1.8018542720237
12	375031	1520	1.5941822162588
12	380275	1540	1.0205198744753
12	385661	1560	2.4254927687788
12	391028	1580	3.8821126183692
12	396254	1600	1.6674105438655
12	401553	1620	2.2563856987856
12	406752	1640	1.3460227515374
12	412127	1660	2.6505469538065
12	417516	1680	3.8854542949446
12	422818	1700	2.5909890251817
12	428127	1720	2.3041737782355
12	433452	1740	2.2087510832086
12	438769	1760	1.5459855244333
12	444067	1780	1.5263171659416
12	449424	1800	1.4032526996429
12	454312	1820	1.5533238705589
12	458588	1840	2.1072642441519
12	462381	1860	1.606805069788
12	465642	1880	3.1665473085994
12	468565	1900	0.72464403958224
12	471080	1920	3.3503803333573
12	473040	1940	0.95182758472895
12	474590	1960	0.17845802452106
12	475598	1980	nan
12	476180	2000	0.076681866762435
13	34505	240	11.207294380343
13	39801	260	1.2414649121862
13	45209	280	7.6138868204814
13	50414	300	2.1241623434935
13	55745	320	2.6766373143662