file 70856 1427379302                                           
version 2
run statisticRVV-164-20150325-18:58:13-24164
attr c 10
attr configname statisticRVV
attr datetime 20150325-18:58:13
attr experiment statisticRVV
attr inifile omnetpp.ini
attr iterationvars "$sc=\"erlangen-medium.launchd.xml\", $p=1/10, $c=10"
attr iterationvars2 "$sc=\"erlangen-medium.launchd.xml\", $p=1/10, $c=10, $repetition=4"
attr measurement "$sc=\"erlangen-medium.launchd.xml\", $p=1/10, $c=10"
attr network RSUExampleScenario
attr p 1/10
attr processid 24164
attr repetition 4
attr replication #4
attr resultdir results
attr runnumber 164
attr sc "\"erlangen-medium.launchd.xml\""
attr seedset 164
vector 0  RSUExampleScenario.rsu[0].appl  Number_CH  ETV
0	2375 1594 144655 6995895 240 2000 89 4 22 1010 12892
vector 1  RSUExampleScenario.rsu[0].appl  Number_ON  ETV
1	3969 1613 144655 6995895 240 2000 89 5 33 1423 25831
vector 2  RSUExampleScenario.rsu[0].appl  Number_FN  ETV
2	5582 1682 144655 6995895 240 2000 89 66 167 10025 1190399
vector 3  RSUExampleScenario.rsu[0].appl  Number_CH_Losts  ETV
3	7264 1537 144655 6995895 240 2000 89 0 8 261 1089
vector 4  RSUExampleScenario.rsu[0].appl  Mean_Cluster_Size  ETV
4	8801 2347 144655 6995895 240 2000 89 1 2 125.59060694208 179.86123541629
vector 5  RSUExampleScenario.rsu[0].appl  StdDev_Cluster_Size  ETV
5	11148 2794 144655 6995895 240 2000 89 0 0.89442719099992 42.901489777379 22.093457170624
vector 6  RSUExampleScenario.rsu[0].appl  Variance_Cluster_Size  ETV
6	13942 2710 144655 6995895 240 2000 89 0 0.8 22.093457170624 6.3131169488512
vector 7  RSUExampleScenario.rsu[0].appl  Mean_Neighbors  ETV
7	16652 2692 144655 6995895 240 2000 89 21.68 61.709844559585 3358.2908481152 141589.17036926
vector 8  RSUExampleScenario.rsu[0].appl  StdDev_Neighbors  ETV
8	19344 2773 144655 6995895 240 2000 89 2.9579925524338 31.354139088748 1372.4352725798 29569.305249823
vector 9  RSUExampleScenario.rsu[0].appl  Variance_Neighbors  ETV
9	22117 2772 144655 6995895 240 2000 89 8.7497199402539 983.08203799655 29569.305249823 19223305.468933
vector 10  RSUExampleScenario.rsu[0].appl  Total_CH_Utility  ETV
10	24889 2862 144655 6995895 240 2000 89 187.24520191841 1111.1122031181 50271.18230671 32121770.472915
vector 11  RSUExampleScenario.rsu[0].appl  Mean_CH_Utility  ETV
11	27751 2863 144655 6995895 240 2000 89 46.811300479602 51.629230886577 4414.5184876693 219067.81134724
vector 12  RSUExampleScenario.rsu[0].appl  StdDev_CH_Utility  ETV
12	30614 2863 144655 6995895 240 2000 89 0.78412151281014 4.798437616665 218.89194587784 590.41516528482
vector 13  RSUExampleScenario.rsu[0].appl  Variance_CH_Utility  ETV
13	33477 2863 144655 6995895 240 2000 89 0.61484654685166 23.025003561025 590.41516528482 5539.7126621481
vector 14  RSUExampleScenario.rsu[0].appl  Total_exp_CH_Utility  ETV
14	36340 2865 144655 6995895 240 2000 89 228.22688494723 1186.9794894595 57863.805555481 41623278.646146
vector 15  RSUExampleScenario.rsu[0].appl  Mean_exp_CH_Utility  ETV
15	39205 2866 144655 6995895 240 2000 89 44.663695559347 46.283477832756 4049.731758068 184282.20174985
vector 16  RSUExampleScenario.rsu[0].appl  StdDev_exp_CH_Utility  ETV
16	42071 2899 144655 6995895 240 2000 89 0.16693440287968 1.7301900244553 88.482549913071 96.571565337998
vector 17  RSUExampleScenario.rsu[0].appl  Variance_exp_CH_Utility  ETV
17	44970 2898 144655 6995895 240 2000 89 0.027867094864797 2.9935575207245 96.571565337997 136.17290793829
vector 18  RSUExampleScenario.rsu[0].appl  Total_ON_Utility  ETV
18	47868 2861 144655 6995895 240 2000 89 1145.5871210162 6387.481284112 324299.85004341 1328321468.1076
vector 19  RSUExampleScenario.rsu[0].appl  Mean_ON_Utility  ETV
19	50729 2864 144655 6995895 240 2000 89 47.667406202817 51.134528175824 4446.8654802041 222261.18673017
vector 20  RSUExampleScenario.rsu[0].appl  StdDev_ON_Utility  ETV
20	53593 2862 144655 6995895 240 2000 89 1.6904311660543 3.655530436479 247.92058742403 704.97985506161
vector 21  RSUExampleScenario.rsu[0].appl  Variance_ON_Utility  ETV
21	56455 2864 144655 6995895 240 2000 89 2.8575575271676 13.362902772024 704.97985506161 6029.8686215513
vector 22  RSUExampleScenario.rsu[0].appl  Total_exp_ON_Utility  ETV
22	59319 2863 144655 6995895 240 2000 89 3137.9854486405 8148.7719089808 509023.55021531 3067936135.1562
vector 23  RSUExampleScenario.rsu[0].appl  Mean_exp_ON_Utility  ETV
23	62182 2866 144655 6995895 240 2000 89 44.828363552007 45.774831337825 4052.5019135449 184529.32328204
vector 24  RSUExampleScenario.rsu[0].appl  StdDev_exp_ON_Utility  ETV
24	65048 2901 144655 6995895 240 2000 89 0.38428904656745 1.474627664504 91.78366575612 98.506150925631
vector 25  RSUExampleScenario.rsu[0].appl  Variance_exp_ON_Utility  ETV
25	67949 2907 144655 6995895 240 2000 89 0.14767807131172 2.1745267489204 98.506150925631 124.42363507153
