version 2
run statisticRVV-102-20150327-05:06:16-15912
attr c 5
attr configname statisticRVV
attr datetime 20150327-05:06:16
attr experiment statisticRVV
attr inifile omnetpp.ini
attr iterationvars "$sc=\"erlangen-low.launchd.xml\", $p=1/5, $c=5"
attr iterationvars2 "$sc=\"erlangen-low.launchd.xml\", $p=1/5, $c=5, $repetition=2"
attr measurement "$sc=\"erlangen-low.launchd.xml\", $p=1/5, $c=5"
attr network RSUExampleScenario
attr p 1/5
attr processid 15912
attr repetition 2
attr replication #2
attr resultdir results
attr runnumber 102
attr sc "\"erlangen-low.launchd.xml\""
attr seedset 102

vector 0  RSUExampleScenario.rsu[0].appl  Number_CH  ETV
vector 1  RSUExampleScenario.rsu[0].appl  Number_ON  ETV
vector 2  RSUExampleScenario.rsu[0].appl  Number_FN  ETV
vector 3  RSUExampleScenario.rsu[0].appl  Number_CH_Losts  ETV
vector 4  RSUExampleScenario.rsu[0].appl  Number_CH_Losts  ETV
vector 5  RSUExampleScenario.rsu[0].appl  Mean_Cluster_Size  ETV
vector 6  RSUExampleScenario.rsu[0].appl  StdDev_Cluster_Size  ETV
vector 7  RSUExampleScenario.rsu[0].appl  Variance_Cluster_Size  ETV
vector 8  RSUExampleScenario.rsu[0].appl  Mean_Neighbors  ETV
vector 9  RSUExampleScenario.rsu[0].appl  StdDev_Neighbors  ETV
vector 10  RSUExampleScenario.rsu[0].appl  Variance_Neighbors  ETV
vector 11  RSUExampleScenario.rsu[0].appl  Total_CH_Utility  ETV
vector 12  RSUExampleScenario.rsu[0].appl  Mean_CH_Utility  ETV
vector 13  RSUExampleScenario.rsu[0].appl  StdDev_CH_Utility  ETV
vector 14  RSUExampleScenario.rsu[0].appl  Variance_CH_Utility  ETV
vector 15  RSUExampleScenario.rsu[0].appl  Total_exp_CH_Utility  ETV
vector 16  RSUExampleScenario.rsu[0].appl  Mean_exp_CH_Utility  ETV
vector 17  RSUExampleScenario.rsu[0].appl  StdDev_exp_CH_Utility  ETV
vector 18  RSUExampleScenario.rsu[0].appl  Variance_exp_CH_Utility  ETV
vector 19  RSUExampleScenario.rsu[0].appl  Total_ON_Utility  ETV
vector 20  RSUExampleScenario.rsu[0].appl  Mean_ON_Utility  ETV
vector 21  RSUExampleScenario.rsu[0].appl  StdDev_ON_Utility  ETV
vector 22  RSUExampleScenario.rsu[0].appl  Variance_ON_Utility  ETV
vector 23  RSUExampleScenario.rsu[0].appl  Total_exp_ON_Utility  ETV
vector 24  RSUExampleScenario.rsu[0].appl  Mean_exp_ON_Utility  ETV
vector 25  RSUExampleScenario.rsu[0].appl  StdDev_exp_ON_Utility  ETV
vector 26  RSUExampleScenario.rsu[0].appl  Variance_exp_ON_Utility  ETV
0	34505	240	9
0	39925	260	11
0	45288	280	7
0	50560	300	10
0	55935	320	11
0	61282	340	6
0	66554	360	12
0	71785	380	10
0	77145	400	8
0	82342	420	11
0	87680	440	5
0	93043	460	10
0	98427	480	8
0	103752	500	8
0	109043	520	5
0	114275	540	9
0	119393	560	7
0	124795	580	10
0	130039	600	9
0	135329	620	5
0	140673	640	8
0	146026	660	5
0	151261	680	5
0	156567	700	9
0	161887	720	9
0	167161	740	4
0	172447	760	11
0	177765	780	7
0	183146	800	5
0	188438	820	7
0	193782	840	10
0	198953	860	9
0	204180	880	5
0	209510	900	4
0	214863	920	10
0	220253	940	10
0	225643	960	4
0	231026	980	6
0	236365	1000	7
0	241654	1020	6
0	246977	1040	8
0	252316	1060	7
0	257653	1080	8
0	262958	1100	10
0	268279	1120	5
0	273521	1140	8
0	278785	1160	5
0	284047	1180	8
0	289388	1200	7
0	294745	1220	9
0	300049	1240	7
0	305378	1260	6
0	310696	1280	10
0	315980	1300	5
0	321187	1320	9
0	326501	1340	5
0	331811	1360	5
0	337106	1380	4
0	342380	1400	5
0	347743	1420	9
0	352991	1440	8
0	358205	1460	6
0	363475	1480	7
0	368719	1500	7
0	374072	1520	7
0	379476	1540	8
0	384907	1560	8
0	390243	1580	7
0	395511	1600	7
0	400689	1620	12
0	405992	1640	6
0	411305	1660	7
0	416588	1680	7
0	421849	1700	9
0	427141	1720	9
0	432480	1740	11
0	437906	1760	10
0	443160	1780	7
0	448538	1800	7
0	453473	1820	8
0	457735	1840	7
0	461563	1860	7
0	464854	1880	4
0	467749	1900	3
0	470299	1920	6
0	472267	1940	2
0	473865	1960	3
0	474936	1980	1
0	475559	2000	2
1	34505	240	22
1	39925	260	22
1	45288	280	23
1	50560	300	28
1	55935	320	26
1	61282	340	24
1	66554	360	24
1	71785	380	24
1	77145	400	21
1	82342	420	27
1	87680	440	19
1	93043	460	26
1	98427	480	18
1	103752	500	28
1	109043	520	22
1	114275	540	25
1	119393	560	20
1	124795	580	23
1	130039	600	29
1	135329	620	20
1	140673	640	23
1	146026	660	23
1	151261	680	24
1	156567	700	30
1	161887	720	28
1	167161	740	17
1	172447	760	26
1	177765	780	23
1	183146	800	18
1	188438	820	20
1	193782	840	25
1	198953	860	29
1	204180	880	18
1	209510	900	16
1	214863	920	24
1	220253	940	22
1	225643	960	17
1	231026	980	16
1	236365	1000	19
1	241654	1020	24
1	246977	1040	25
1	252316	1060	16
1	257653	1080	26
1	262958	1100	24
1	268279	1120	22
1	273521	1140	25
1	278785	1160	23
1	284047	1180	27
1	289388	1200	28
1	294745	1220	25
1	300049	1240	17
1	305378	1260	20
1	310696	1280	27
1	315980	1300	17
1	321187	1320	24
1	326501	1340	16
1	331811	1360	16
1	337106	1380	14
1	342380	1400	24
1	347743	1420	25
1	352991	1440	29
1	358205	1460	21
1	363475	1480	25
1	368719	1500	24
1	374072	1520	27
1	379476	1540	30
1	384907	1560	22
1	390243	1580	21
1	395511	1600	19
1	400689	1620	28
1	405992	1640	14
1	411305	1660	19
1	416588	1680	23
1	421849	1700	25
1	427141	1720	23
1	432480	1740	24
1	437906	1760	26
1	443160	1780	23
1	448538	1800	19
1	453473	1820	23
1	457735	1840	20
1	461563	1860	16
1	464854	1880	14
1	467749	1900	15
1	470299	1920	13
1	472267	1940	9
1	473865	1960	10
1	474936	1980	5
1	475559	2000	6
2	34505	240	8
2	39925	260	8
2	45288	280	10
2	50560	300	2
2	55935	320	3
2	61282	340	9
2	66554	360	4
2	71785	380	6
2	77145	400	11
2	82342	420	2
2	87680	440	16
2	93043	460	5
2	98427	480	14
2	103752	500	5
2	109043	520	15
2	114275	540	5
2	119393	560	13
2	124795	580	8
2	130039	600	1
2	135329	620	15
2	140673	640	8
2	146026	660	12
2	151261	680	12
2	156567	700	1
2	161887	720	4
2	167161	740	19
2	172447	760	4
2	177765	780	9
2	183146	800	18
2	188438	820	13
2	193782	840	5
2	198953	860	3
2	204180	880	16
2	209510	900	20
2	214863	920	8
2	220253	940	9
2	225643	960	19
2	231026	980	18
2	236365	1000	15
2	241654	1020	10
2	246977	1040	8
2	252316	1060	17
2	257653	1080	7
2	262958	1100	8
2	268279	1120	14
2	273521	1140	7
2	278785	1160	13
2	284047	1180	5
2	289388	1200	6
2	294745	1220	6
2	300049	1240	16
2	305378	1260	14
2	310696	1280	3
2	315980	1300	18
2	321187	1320	7
2	326501	1340	20
2	331811	1360	18
2	337106	1380	21
2	342380	1400	12
2	347743	1420	6
2	352991	1440	3
2	358205	1460	13
2	363475	1480	9
2	368719	1500	9
2	374072	1520	8
2	379476	1540	3
2	384907	1560	10
2	390243	1580	12
2	395511	1600	15
2	400689	1620	0
2	405992	1640	20
2	411305	1660	14
2	416588	1680	9
2	421849	1700	6
2	427141	1720	8
2	432480	1740	5
2	437906	1760	6
2	443160	1780	10
2	448538	1800	13
2	453473	1820	6
2	457735	1840	7
2	461563	1860	8
2	464854	1880	9
2	467749	1900	6
2	470299	1920	2
2	472267	1940	7
2	473865	1960	1
2	474936	1980	4
2	475559	2000	0
3	34505	240	0
3	39925	260	2
3	45288	280	5
3	50560	300	0
3	55935	320	1
3	61282	340	1
3	66554	360	2
3	71785	380	0
3	77145	400	0
3	82342	420	2
3	87680	440	0
3	93043	460	1
3	98427	480	3
3	103752	500	1
3	109043	520	2
3	114275	540	1
3	119393	560	1
3	124795	580	1
3	130039	600	0
3	135329	620	0
3	140673	640	0
3	146026	660	0
3	151261	680	0
3	156567	700	0
3	161887	720	1
3	167161	740	1
3	172447	760	2
3	177765	780	1
3	183146	800	0
3	188438	820	1
3	193782	840	2
3	198953	860	1
3	204180	880	1
3	209510	900	0
3	214863	920	1
3	220253	940	1
3	225643	960	0
3	231026	980	2
3	236365	1000	1
3	241654	1020	0
3	246977	1040	1
3	252316	1060	1
3	257653	1080	0
3	262958	1100	3
3	268279	1120	0
3	273521	1140	0
3	278785	1160	0
3	284047	1180	0
3	289388	1200	0
3	294745	1220	0
3	300049	1240	1
3	305378	1260	0
3	310696	1280	0
3	315980	1300	2
3	321187	1320	2
3	326501	1340	2
3	331811	1360	1
3	337106	1380	0
3	342380	1400	0
3	347743	1420	0
3	352991	1440	0
3	358205	1460	0
3	363475	1480	1
3	368719	1500	1
3	374072	1520	1
3	379476	1540	1
3	384907	1560	1
3	390243	1580	0
3	395511	1600	1
3	400689	1620	0
3	405992	1640	0
3	411305	1660	1
3	416588	1680	1
3	421849	1700	0
3	427141	1720	3
3	432480	1740	3
3	437906	1760	1
3	443160	1780	0
3	448538	1800	0
3	453473	1820	1
3	457735	1840	1
3	461563	1860	0
3	464854	1880	1
3	467749	1900	0
3	470299	1920	2
3	472267	1940	0
3	473865	1960	0
3	474936	1980	0
3	475559	2000	0
4	34505	240	8
4	39925	260	6
4	45288	280	5
4	50560	300	2
4	55935	320	2
4	61282	340	8
4	66554	360	2
4	71785	380	5
4	77145	400	10
4	82342	420	0
4	87680	440	16
4	93043	460	4
4	98427	480	11
4	103752	500	3
4	109043	520	13
4	114275	540	4
4	119393	560	12
4	124795	580	7
4	130039	600	1
4	135329	620	15
4	140673	640	8
4	146026	660	11
4	151261	680	12
4	156567	700	1
4	161887	720	3
4	167161	740	18
4	172447	760	2
4	177765	780	8
4	183146	800	18
4	188438	820	12
4	193782	840	3
4	198953	860	2
4	204180	880	15
4	209510	900	20
4	214863	920	7
4	220253	940	7
4	225643	960	19
4	231026	980	16
4	236365	1000	14
4	241654	1020	10
4	246977	1040	7
4	252316	1060	16
4	257653	1080	7
4	262958	1100	5
4	268279	1120	14
4	273521	1140	7
4	278785	1160	13
4	284047	1180	5
4	289388	1200	6
4	294745	1220	6
4	300049	1240	15
4	305378	1260	14
4	310696	1280	3
4	315980	1300	16
4	321187	1320	5
4	326501	1340	17
4	331811	1360	17
4	337106	1380	21
4	342380	1400	12
4	347743	1420	6
4	352991	1440	3
4	358205	1460	13
4	363475	1480	8
4	368719	1500	8
4	374072	1520	6
4	379476	1540	1
4	384907	1560	9
4	390243	1580	12
4	395511	1600	12
4	400689	1620	0
4	405992	1640	20
4	411305	1660	13
4	416588	1680	8
4	421849	1700	6
4	427141	1720	5
4	432480	1740	2
4	437906	1760	4
4	443160	1780	10
4	448538	1800	13
4	453473	1820	5
4	457735	1840	6
4	461563	1860	8
4	464854	1880	8
4	467749	1900	6
4	470299	1920	0
4	472267	1940	7
4	473865	1960	1
4	474936	1980	4
4	475559	2000	0
5	34505	240	2.4444444444444
5	39925	260	2
5	45288	280	3.2857142857143
5	50560	300	2.8
5	55935	320	2.3636363636364
5	61282	340	4
5	66554	360	2
5	71785	380	2.4
5	77145	400	2.625
5	82342	420	2.4545454545455
5	87680	440	3.8
5	93043	460	2.6
5	98427	480	2.25
5	103752	500	3.5
5	109043	520	4.4
5	114275	540	2.7777777777778
5	119393	560	2.8571428571429
5	124795	580	2.3
5	130039	600	3.2222222222222
5	135329	620	4
5	140673	640	2.875
5	146026	660	4.6
5	151261	680	4.8
5	156567	700	3.3333333333333
5	161887	720	3.1111111111111
5	167161	740	4.25
5	172447	760	2.3636363636364
5	177765	780	3.2857142857143
5	183146	800	3.6
5	188438	820	2.8571428571429
5	193782	840	2.5
5	198953	860	3.2222222222222
5	204180	880	3.6
5	209510	900	4
5	214863	920	2.4
5	220253	940	2.2
5	225643	960	4.25
5	231026	980	2.6666666666667
5	236365	1000	2.7142857142857
5	241654	1020	4
5	246977	1040	3.125
5	252316	1060	2.2857142857143
5	257653	1080	3.25
5	262958	1100	2.4
5	268279	1120	4.4
5	273521	1140	3.125
5	278785	1160	4.6
5	284047	1180	3.375
5	289388	1200	4
5	294745	1220	2.7777777777778
5	300049	1240	2.4285714285714
5	305378	1260	3.3333333333333
5	310696	1280	2.7
5	315980	1300	3.4
5	321187	1320	2.6666666666667
5	326501	1340	3.2
5	331811	1360	3.2
5	337106	1380	3.5
5	342380	1400	4.8
5	347743	1420	2.7777777777778
5	352991	1440	3.625
5	358205	1460	3.5
5	363475	1480	3.5714285714286
5	368719	1500	3.4285714285714
5	374072	1520	3.8571428571429
5	379476	1540	3.75
5	384907	1560	2.75
5	390243	1580	3
5	395511	1600	2.7142857142857
5	400689	1620	2.3333333333333
5	405992	1640	2.3333333333333
5	411305	1660	2.7142857142857
5	416588	1680	3.2857142857143
5	421849	1700	2.7777777777778
5	427141	1720	2.5555555555556
5	432480	1740	2.1818181818182
5	437906	1760	2.6
5	443160	1780	3.2857142857143
5	448538	1800	2.7142857142857
5	453473	1820	2.875
5	457735	1840	2.8571428571429
5	461563	1860	2.2857142857143
5	464854	1880	3.5
5	467749	1900	5
5	470299	1920	2.1666666666667
5	472267	1940	4.5
5	473865	1960	3.3333333333333
5	474936	1980	5
5	475559	2000	3
6	34505	240	1.5898986690282
6	39925	260	1.0954451150103
6	45288	280	1.7043362064927
6	50560	300	1.3984117975602
6	55935	320	1.1200649331827
6	61282	340	1.2649110640674
6	66554	360	1.1281521496355
6	71785	380	1.3498971154211
6	77145	400	0.9161253813129
6	82342	420	1.3684762594679
6	87680	440	1.3038404810405
6	93043	460	0.6992058987801
6	98427	480	1.2817398889233
6	103752	500	1.1952286093344
6	109043	520	0.89442719099992
6	114275	540	1.4813657362193
6	119393	560	1.3451854182691
6	124795	580	1.1595018087284
6	130039	600	1.3944333775568
6	135329	620	1.2247448713916
6	140673	640	1.6420805617961
6	146026	660	0.54772255750517
6	151261	680	0.44721359549996
6	156567	700	1.3228756555323
6	161887	720	1.3642254619787
6	167161	740	1.5
6	172447	760	0.80903983495589
6	177765	780	1.7043362064927
6	183146	800	1.6733200530682
6	188438	820	1.3451854182691
6	193782	840	1.0801234497346
6	198953	860	1.092906420717
6	204180	880	1.5165750888103
6	209510	900	0.81649658092773
6	214863	920	1.1737877907773
6	220253	940	1.3984117975602
6	225643	960	0.95742710775634
6	231026	980	1.3662601021279
6	236365	1000	1.253566341056
6	241654	1020	1.0954451150103
6	246977	1040	0.99103120896511
6	252316	1060	1.1126972805284
6	257653	1080	0.88640526042792
6	262958	1100	1.0749676997731
6	268279	1120	0.54772255750517
6	273521	1140	1.3562026818605
6	278785	1160	0.54772255750517
6	284047	1180	1.3024701806293
6	289388	1200	0.81649658092773
6	294745	1220	1.5634719199411
6	300049	1240	1.1338934190277
6	305378	1260	1.6329931618555
6	310696	1280	1.4181364924122
6	315980	1300	1.3416407864999
6	321187	1320	1.5
6	326501	1340	1.6431676725155
6	331811	1360	1.7888543819998
6	337106	1380	1.7320508075689
6	342380	1400	0.44721359549996
6	347743	1420	0.97182531580755
6	352991	1440	1.0606601717798
6	358205	1460	1.0488088481702
6	363475	1480	0.78679579246944
6	368719	1500	1.6183471874254
6	374072	1520	1.2149857925879
6	379476	1540	0.88640526042792
6	384907	1560	1.2817398889233
6	390243	1580	1.4142135623731
6	395511	1600	1.253566341056
6	400689	1620	1.1547005383793
6	405992	1640	1.211060141639
6	411305	1660	1.3801311186847
6	416588	1680	1.4960264830862
6	421849	1700	1.4813657362193
6	427141	1720	1.0137937550497
6	432480	1740	1.0787197799412
6	437906	1760	1.2649110640674
6	443160	1780	1.1126972805284
6	448538	1800	1.6035674514745
6	453473	1820	1.6420805617961
6	457735	1840	1.6761634196951
6	461563	1860	1.6035674514745
6	464854	1880	1.7320508075689
6	467749	1900	0
6	470299	1920	0.98319208025018
6	472267	1940	0.70710678118655
6	473865	1960	2.0816659994661
6	474936	1980	nan
6	475559	2000	0
7	34505	240	2.5277777777778
7	39925	260	1.2
7	45288	280	2.9047619047619
7	50560	300	1.9555555555556
7	55935	320	1.2545454545455
7	61282	340	1.6
7	66554	360	1.2727272727273
7	71785	380	1.8222222222222
7	77145	400	0.83928571428571
7	82342	420	1.8727272727273
7	87680	440	1.7
7	93043	460	0.48888888888889
7	98427	480	1.6428571428571
7	103752	500	1.4285714285714
7	109043	520	0.8
7	114275	540	2.1944444444444
7	119393	560	1.8095238095238
7	124795	580	1.3444444444444
7	130039	600	1.9444444444444
7	135329	620	1.5
7	140673	640	2.6964285714286
7	146026	660	0.3
7	151261	680	0.2
7	156567	700	1.75
7	161887	720	1.8611111111111
7	167161	740	2.25
7	172447	760	0.65454545454545
7	177765	780	2.9047619047619
7	183146	800	2.8
7	188438	820	1.8095238095238
7	193782	840	1.1666666666667
7	198953	860	1.1944444444444
7	204180	880	2.3
7	209510	900	0.66666666666667
7	214863	920	1.3777777777778
7	220253	940	1.9555555555556
7	225643	960	0.91666666666667
7	231026	980	1.8666666666667
7	236365	1000	1.5714285714286
7	241654	1020	1.2
7	246977	1040	0.98214285714286
7	252316	1060	1.2380952380952
7	257653	1080	0.78571428571429
7	262958	1100	1.1555555555556
7	268279	1120	0.3
7	273521	1140	1.8392857142857
7	278785	1160	0.3
7	284047	1180	1.6964285714286
7	289388	1200	0.66666666666667
7	294745	1220	2.4444444444444
7	300049	1240	1.2857142857143
7	305378	1260	2.6666666666667
7	310696	1280	2.0111111111111
7	315980	1300	1.8
7	321187	1320	2.25
7	326501	1340	2.7
7	331811	1360	3.2
7	337106	1380	3
7	342380	1400	0.2
7	347743	1420	0.94444444444444
7	352991	1440	1.125
7	358205	1460	1.1
7	363475	1480	0.61904761904762
7	368719	1500	2.6190476190476
7	374072	1520	1.4761904761905
7	379476	1540	0.78571428571429
7	384907	1560	1.6428571428571
7	390243	1580	2
7	395511	1600	1.5714285714286
7	400689	1620	1.3333333333333
7	405992	1640	1.4666666666667
7	411305	1660	1.9047619047619
7	416588	1680	2.2380952380952
7	421849	1700	2.1944444444444
7	427141	1720	1.0277777777778
7	432480	1740	1.1636363636364
7	437906	1760	1.6
7	443160	1780	1.2380952380952
7	448538	1800	2.5714285714286
7	453473	1820	2.6964285714286
7	457735	1840	2.8095238095238
7	461563	1860	2.5714285714286
7	464854	1880	3
7	467749	1900	0
7	470299	1920	0.96666666666667
7	472267	1940	0.5
7	473865	1960	4.3333333333333
7	474936	1980	nan
7	475559	2000	0
8	34505	240	9
8	39925	260	9.1219512195122
8	45288	280	9.05
8	50560	300	9.25
8	55935	320	9.05
8	61282	340	9.1538461538462
8	66554	360	9
8	71785	380	9.2051282051282
8	77145	400	9.1282051282051
8	82342	420	8.9487179487179
8	87680	440	8.9
8	93043	460	8.780487804878
8	98427	480	9.025
8	103752	500	9.1
8	109043	520	8.8780487804878
8	114275	540	8.8461538461538
8	119393	560	8.7
8	124795	580	8.6585365853659
8	130039	600	9.025641025641
8	135329	620	8.925
8	140673	640	9.025641025641
8	146026	660	9.2051282051282
8	151261	680	8.7073170731707
8	156567	700	9.15
8	161887	720	8.6829268292683
8	167161	740	8.775
8	172447	760	8.875
8	177765	780	9.1794871794872
8	183146	800	8.8048780487805
8	188438	820	9.2820512820513
8	193782	840	8.875
8	198953	860	8.8292682926829
8	204180	880	8.7948717948718
8	209510	900	8.925
8	214863	920	8.6904761904762
8	220253	940	9.225
8	225643	960	9.125
8	231026	980	8.875
8	236365	1000	8.9512195121951
8	241654	1020	8.925
8	246977	1040	8.9024390243902
8	252316	1060	9.025
8	257653	1080	9
8	262958	1100	8.547619047619
8	268279	1120	8.7317073170732
8	273521	1140	9.025
8	278785	1160	8.8292682926829
8	284047	1180	9.05
8	289388	1200	9.0731707317073
8	294745	1220	9
8	300049	1240	8.85
8	305378	1260	8.8
8	310696	1280	8.975
8	315980	1300	8.975
8	321187	1320	8.95
8	326501	1340	8.825
8	331811	1360	9.0769230769231
8	337106	1380	9.0769230769231
8	342380	1400	8.7073170731707
8	347743	1420	9.1
8	352991	1440	8.975
8	358205	1460	8.75
8	363475	1480	8.9024390243902
8	368719	1500	8.75
8	374072	1520	9
8	379476	1540	9.075
8	384907	1560	9.175
8	390243	1580	9.125
8	395511	1600	9.1025641025641
8	400689	1620	8.8
8	405992	1640	9.075
8	411305	1660	8.975
8	416588	1680	8.8205128205128
8	421849	1700	8.725
8	427141	1720	8.95
8	432480	1740	9.15
8	437906	1760	9.219512195122
8	443160	1780	9.05
8	448538	1800	9.3333333333333
8	453473	1820	9.0810810810811
8	457735	1840	8.2352941176471
8	461563	1860	8.3548387096774
8	464854	1880	8.2592592592593
8	467749	1900	8.3333333333333
8	470299	1920	8.0952380952381
8	472267	1940	7.6666666666667
8	473865	1960	7.4285714285714
8	474936	1980	6.8
8	475559	2000	5.625
9	34505	240	1.6383560438183
9	39925	260	1.399912889276
9	45288	280	1.678674690924
9	50560	300	1.427747014867
9	55935	320	1.8390354216413
9	61282	340	1.4425573333213
9	66554	360	1.3774744634424
9	71785	380	1.2810252304407
9	77145	400	1.3988620785159
9	82342	420	1.2967310711883
9	87680	440	1.4464811413592
9	93043	460	1.7394279968132
9	98427	480	1.3490262395046
9	103752	500	1.549193338483
9	109043	520	1.5683609589508
9	114275	540	1.4425573333213
9	119393	560	1.6203829873339
9	124795	580	2.2091826101249
9	130039	600	1.4953820051848
9	135329	620	1.7886752009124
9	140673	640	1.36665514626
9	146026	660	1.489957385111
9	151261	680	1.8873778429216
9	156567	700	1.9942224241351
9	161887	720	1.9292359159813
9	167161	740	1.8740809713509
9	172447	760	2.1386252473769
9	177765	780	1.5195531696382
9	183146	800	2.2717780722941
9	188438	820	1.3945140249284
9	193782	840	1.4708710135364
9	198953	860	1.7592958680164
9	204180	880	1.8235230098196
9	209510	900	1.7303845726401
9	214863	920	2.1468990142687
9	220253	940	1.7169964831289
9	225643	960	2.0654359445467
9	231026	980	1.7713894300296
9	236365	1000	1.8967237478372
9	241654	1020	1.4030644117751
9	246977	1040	2.2672105994898
9	252316	1060	1.9012479032845
9	257653	1080	1.897366596101
9	262958	1100	2.2760940114364
9	268279	1120	1.7324028146465
9	273521	1140	1.5440124218977
9	278785	1160	1.6867489295149
9	284047	1180	1.4133067244713
9	289388	1200	1.737674363948
9	294745	1220	1.7831116564835
9	300049	1240	1.9813230492883
9	305378	1260	1.4884168150705
9	310696	1280	1.6715952767434
9	315980	1300	1.2297070737291
9	321187	1320	1.5843788720683
9	326501	1340	2.2970159013995
9	331811	1360	1.5624645744972
9	337106	1380	1.4935759876114
9	342380	1400	2.040145858009
9	347743	1420	1.7802333468483
9	352991	1440	1.3679012559954
9	358205	1460	2.1333733970597
9	363475	1480	1.7579089573806
9	368719	1500	1.427747014867
9	374072	1520	1.8439088914586
9	379476	1540	2.1047869738119
9	384907	1560	1.3938969538487
9	390243	1580	2.0901171602544
9	395511	1600	1.5354559034075
9	400689	1620	1.6824889987067
9	405992	1640	2.0679173221582
9	411305	1660	1.3490262395046
9	416588	1680	1.6038078844096
9	421849	1700	1.6484258225069
9	427141	1720	1.6322078801741
9	432480	1740	1.5450499950421
9	437906	1760	1.7104413921844
9	443160	1780	1.9341731155782
9	448538	1800	1.3828523788729
9	453473	1820	1.4216261889192
9	457735	1840	1.6707614582182
9	461563	1860	1.30507693507
9	464854	1880	1.5833895626543
9	467749	1900	1.8572224859501
9	470299	1920	1.4800257398019
9	472267	1940	1.8470962903656
9	473865	1960	1.785164750608
9	474936	1980	1.1352924243951
9	475559	2000	1.4078859531734
10	34505	240	2.6842105263158
10	39925	260	1.959756097561
10	45288	280	2.8179487179487
10	50560	300	2.0384615384615
10	55935	320	3.3820512820513
10	61282	340	2.080971659919
10	66554	360	1.8974358974359
10	71785	380	1.6410256410256
10	77145	400	1.9568151147099
10	82342	420	1.6815114709852
10	87680	440	2.0923076923077
10	93043	460	3.0256097560976
10	98427	480	1.8198717948718
10	103752	500	2.4
10	109043	520	2.459756097561
10	114275	540	2.080971659919
10	119393	560	2.625641025641
10	124795	580	4.880487804878
10	130039	600	2.2361673414305
10	135329	620	3.199358974359
10	140673	640	1.8677462887989
10	146026	660	2.2199730094467
10	151261	680	3.5621951219512
10	156567	700	3.9769230769231
10	161887	720	3.7219512195122
10	167161	740	3.5121794871795
10	172447	760	4.5737179487179
10	177765	780	2.3090418353576
10	183146	800	5.1609756097561
10	188438	820	1.944669365722
10	193782	840	2.1634615384615
10	198953	860	3.0951219512195
10	204180	880	3.3252361673414
10	209510	900	2.9942307692308
10	214863	920	4.6091753774681
10	220253	940	2.9480769230769
10	225643	960	4.2660256410256
10	231026	980	3.1378205128205
10	236365	1000	3.5975609756098
10	241654	1020	1.9685897435897
10	246977	1040	5.140243902439
10	252316	1060	3.6147435897436
10	257653	1080	3.6
10	262958	1100	5.1806039488966
10	268279	1120	3.0012195121951
10	273521	1140	2.3839743589744
10	278785	1160	2.8451219512195
10	284047	1180	1.9974358974359
10	289388	1200	3.019512195122
10	294745	1220	3.1794871794872
10	300049	1240	3.925641025641
10	305378	1260	2.2153846153846
10	310696	1280	2.7942307692308
10	315980	1300	1.5121794871795
10	321187	1320	2.5102564102564
10	326501	1340	5.2762820512821
10	331811	1360	2.4412955465587
10	337106	1380	2.2307692307692
10	342380	1400	4.1621951219512
10	347743	1420	3.1692307692308
10	352991	1440	1.8711538461538
10	358205	1460	4.5512820512821
10	363475	1480	3.090243902439
10	368719	1500	2.0384615384615
10	374072	1520	3.4
10	379476	1540	4.4301282051282
10	384907	1560	1.9429487179487
10	390243	1580	4.3685897435897
10	395511	1600	2.357624831309
10	400689	1620	2.8307692307692
10	405992	1640	4.2762820512821
10	411305	1660	1.8198717948718
10	416588	1680	2.5721997300945
10	421849	1700	2.7173076923077
10	427141	1720	2.6641025641026
10	432480	1740	2.3871794871795
10	437906	1760	2.9256097560976
10	443160	1780	3.7410256410256
10	448538	1800	1.9122807017544
10	453473	1820	2.021021021021
10	457735	1840	2.7914438502674
10	461563	1860	1.7032258064516
10	464854	1880	2.5071225071225
10	467749	1900	3.4492753623188
10	470299	1920	2.1904761904762
10	472267	1940	3.4117647058824
10	473865	1960	3.1868131868132
10	474936	1980	1.2888888888889
10	475559	2000	1.9821428571429
11	34505	240	411.53818774135
11	39925	260	505.59848599955
11	45288	280	324.32894838586
11	50560	300	463.47590618253
11	55935	320	519.32234853827
11	61282	340	272.39765216932
11	66554	360	562.48696151686
11	71785	380	466.63136828331
11	77145	400	370.20244633197
11	82342	420	507.63498108764
11	87680	440	228.46559793717
11	93043	460	464.0712540456
11	98427	480	373.96347254735
11	103752	500	369.94005206127
11	109043	520	228.30484234792
11	114275	540	414.02210266333
11	119393	560	325.37405661537
11	124795	580	467.89271414632
11	130039	600	421.37361373267
11	135329	620	229.52369403653
11	140673	640	366.88526938638
11	146026	660	231.59511041464
11	151261	680	230.46158017527
11	156567	700	416.00443834201
11	161887	720	417.30502379223
11	167161	740	184.52954696249
11	172447	760	518.85505097607
11	177765	780	321.31564714128
11	183146	800	234.00965805353
11	188438	820	322.62334801778
11	193782	840	466.03314970194
11	198953	860	413.41273446194
11	204180	880	230.20663748055
11	209510	900	189.34963649426
11	214863	920	461.05334522937
11	220253	940	461.43765114486
11	225643	960	181.01904849809
11	231026	980	267.23539427128
11	236365	1000	328.62407582286
11	241654	1020	275.05918637471
11	246977	1040	371.48338480455
11	252316	1060	324.48985188269
11	257653	1080	370.48542591938
11	262958	1100	460.08422949562
11	268279	1120	228.95571492834
11	273521	1140	371.7854009533
11	278785	1160	231.66231152869
11	284047	1180	365.44897500869
11	289388	1200	323.16969469358
11	294745	1220	425.02844736927
11	300049	1240	316.30958236374
11	305378	1260	274.38260879696
11	310696	1280	470.662653589
11	315980	1300	230.70316515909
11	321187	1320	410.1971068237
11	326501	1340	229.85755095255
11	331811	1360	232.51553114392
11	337106	1380	187.14452830154
11	342380	1400	228.41651651233
11	347743	1420	411.05696343581
11	352991	1440	370.3666956582
11	358205	1460	276.24909236746
11	363475	1480	322.10489325936
11	368719	1500	331.87335344363
11	374072	1520	322.91718908115
11	379476	1540	371.96188659917
11	384907	1560	364.77553272704
11	390243	1580	318.75576778435
11	395511	1600	322.90733001483
11	400689	1620	557.19959213972
11	405992	1640	281.00281888376
11	411305	1660	326.90981316661
11	416588	1680	329.41439747675
11	421849	1700	419.29699244482
11	427141	1720	418.61210624698
11	432480	1740	521.91525999474
11	437906	1760	466.96491747672
11	443160	1780	318.1913248227
11	448538	1800	321.25760718826
11	453473	1820	371.29186660293
11	457735	1840	319.63265509226
11	461563	1860	332.02716293843
11	464854	1880	188.48666903201
11	467749	1900	137.3605689993
11	470299	1920	284.57096543237
11	472267	1940	96.288733111704
11	473865	1960	148.75127985231
11	474936	1980	45.772654068242
11	475559	2000	96.533568981389
12	34505	240	45.726465304594
12	39925	260	45.963498727231
12	45288	280	46.332706912265
12	50560	300	46.347590618253
12	55935	320	47.211122594388
12	61282	340	45.399608694886
12	66554	360	46.873913459738
12	71785	380	46.663136828331
12	77145	400	46.275305791496
12	82342	420	46.148634644331
12	87680	440	45.693119587435
12	93043	460	46.40712540456
12	98427	480	46.745434068418
12	103752	500	46.242506507659
12	109043	520	45.660968469584
12	114275	540	46.002455851482
12	119393	560	46.48200808791
12	124795	580	46.789271414632
12	130039	600	46.819290414741
12	135329	620	45.904738807306
12	140673	640	45.860658673298
12	146026	660	46.319022082927
12	151261	680	46.092316035054
12	156567	700	46.222715371334
12	161887	720	46.367224865803
12	167161	740	46.132386740622
12	172447	760	47.168640997824
12	177765	780	45.902235305897
12	183146	800	46.801931610706
12	188438	820	46.089049716826
12	193782	840	46.603314970194
12	198953	860	45.934748273549
12	204180	880	46.041327496111
12	209510	900	47.337409123564
12	214863	920	46.105334522937
12	220253	940	46.143765114486
12	225643	960	45.254762124521
12	231026	980	44.539232378546
12	236365	1000	46.946296546123
12	241654	1020	45.843197729118
12	246977	1040	46.435423100569
12	252316	1060	46.355693126099
12	257653	1080	46.310678239922
12	262958	1100	46.008422949562
12	268279	1120	45.791142985669
12	273521	1140	46.473175119163
12	278785	1160	46.332462305737
12	284047	1180	45.681121876086
12	289388	1200	46.167099241939
12	294745	1220	47.22538304103
12	300049	1240	45.18708319482
12	305378	1260	45.730434799493
12	310696	1280	47.0662653589
12	315980	1300	46.140633031818
12	321187	1320	45.577456313745
12	326501	1340	45.97151019051
12	331811	1360	46.503106228785
12	337106	1380	46.786132075385
12	342380	1400	45.683303302466
12	347743	1420	45.672995937313
12	352991	1440	46.295836957276
12	358205	1460	46.041515394577
12	363475	1480	46.014984751337
12	368719	1500	47.410479063375
12	374072	1520	46.131027011594
12	379476	1540	46.495235824897
12	384907	1560	45.59694159088
12	390243	1580	45.536538254908
12	395511	1600	46.129618573547
12	400689	1620	46.433299344976
12	405992	1640	46.833803147294
12	411305	1660	46.701401880944
12	416588	1680	47.059199639535
12	421849	1700	46.588554716091
12	427141	1720	46.512456249665
12	432480	1740	47.446841817704
12	437906	1760	46.696491747672
12	443160	1780	45.4559035461
12	448538	1800	45.893943884037
12	453473	1820	46.411483325366
12	457735	1840	45.661807870322
12	461563	1860	47.432451848347
12	464854	1880	47.121667258002
12	467749	1900	45.7868563331
12	470299	1920	47.428494238728
12	472267	1940	48.144366555852
12	473865	1960	49.583759950769
12	474936	1980	45.772654068242
12	475559	2000	48.266784490694
13	34505	240	1.2097002355508
13	39925	260	1.4512750587661
13	45288	280	1.5390552664636
13	50560	300	1.6440592937803
13	55935	320	1.9600648828372
13	61282	340	0.91555359983314
13	66554	360	2.0706976567128
13	71785	380	3.0052276971894
13	77145	400	1.6485596359014
13	82342	420	1.3570808926998
13	87680	440	0.38184314271837
13	93043	460	1.2663271498488
13	98427	480	1.493741300419
13	103752	500	2.4129978788276
13	109043	520	1.3700884072756
13	114275	540	1.1321206377479
13	119393	560	1.3536849303467
13	124795	580	1.834343097074
13	130039	600	1.5181766984946
13	135329	620	1.2454664617708
13	140673	640	1.4616380376547
13	146026	660	1.0281931215673
13	151261	680	0.74390875808886
13	156567	700	0.91734680180749
13	161887	720	1.6153470270634
13	167161	740	1.0230121219178
13	172447	760	1.9012593990869
13	177765	780	1.0254145891444
13	183146	800	1.3649082171644
13	188438	820	0.92245156656858
13	193782	840	1.8213369464993
13	198953	860	1.7226250032645
13	204180	880	1.0613106772981