version 2
run statisticRVV-138-20150327-07:10:22-15664
attr c 15
attr configname statisticRVV
attr datetime 20150327-07:10:22
attr experiment statisticRVV
attr inifile omnetpp.ini
attr iterationvars "$sc=\"erlangen-medium.launchd.xml\", $p=1/15, $c=15"
attr iterationvars2 "$sc=\"erlangen-medium.launchd.xml\", $p=1/15, $c=15, $repetition=8"
attr measurement "$sc=\"erlangen-medium.launchd.xml\", $p=1/15, $c=15"
attr network RSUExampleScenario
attr p 1/15
attr processid 15664
attr repetition 8
attr replication #8
attr resultdir results
attr runnumber 138
attr sc "\"erlangen-medium.launchd.xml\""
attr seedset 138

vector 0  RSUExampleScenario.rsu[0].appl  Number_CH  ETV
vector 1  RSUExampleScenario.rsu[0].appl  Number_ON  ETV
vector 2  RSUExampleScenario.rsu[0].appl  Number_FN  ETV
vector 3  RSUExampleScenario.rsu[0].appl  Number_CH_Losts  ETV
vector 4  RSUExampleScenario.rsu[0].appl  Number_CH_Losts  ETV
vector 5  RSUExampleScenario.rsu[0].appl  Mean_Cluster_Size  ETV
vector 6  RSUExampleScenario.rsu[0].appl  StdDev_Cluster_Size  ETV
vector 7  RSUExampleScenario.rsu[0].appl  Variance_Cluster_Size  ETV
vector 8  RSUExampleScenario.rsu[0].appl  Mean_Neighbors  ETV
vector 9  RSUExampleScenario.rsu[0].appl  StdDev_Neighbors  ETV
vector 10  RSUExampleScenario.rsu[0].appl  Variance_Neighbors  ETV
vector 11  RSUExampleScenario.rsu[0].appl  Total_CH_Utility  ETV
vector 12  RSUExampleScenario.rsu[0].appl  Mean_CH_Utility  ETV
vector 13  RSUExampleScenario.rsu[0].appl  StdDev_CH_Utility  ETV
vector 14  RSUExampleScenario.rsu[0].appl  Variance_CH_Utility  ETV
vector 15  RSUExampleScenario.rsu[0].appl  Total_exp_CH_Utility  ETV
vector 16  RSUExampleScenario.rsu[0].appl  Mean_exp_CH_Utility  ETV
vector 17  RSUExampleScenario.rsu[0].appl  StdDev_exp_CH_Utility  ETV
vector 18  RSUExampleScenario.rsu[0].appl  Variance_exp_CH_Utility  ETV
vector 19  RSUExampleScenario.rsu[0].appl  Total_ON_Utility  ETV
vector 20  RSUExampleScenario.rsu[0].appl  Mean_ON_Utility  ETV
vector 21  RSUExampleScenario.rsu[0].appl  StdDev_ON_Utility  ETV
vector 22  RSUExampleScenario.rsu[0].appl  Variance_ON_Utility  ETV
vector 23  RSUExampleScenario.rsu[0].appl  Total_exp_ON_Utility  ETV
vector 24  RSUExampleScenario.rsu[0].appl  Mean_exp_ON_Utility  ETV
vector 25  RSUExampleScenario.rsu[0].appl  StdDev_exp_ON_Utility  ETV
vector 26  RSUExampleScenario.rsu[0].appl  Variance_exp_ON_Utility  ETV
0	145677	240	2
0	171543	260	5
0	198703	280	6
0	226003	300	4
0	253317	320	5
0	280513	340	6
0	307687	360	5
0	334767	380	8
0	362284	400	10
0	389801	420	5
0	417441	440	7
0	445708	460	8
0	474178	480	6
0	503285	500	4
0	533149	520	7
0	563298	540	4
0	593888	560	2
0	625189	580	5
0	657309	600	8
0	690155	620	10
0	724017	640	9
0	758010	660	6
0	794062	680	8
0	830502	700	4
0	867737	720	7
0	906902	740	9
0	946818	760	7
0	988321	780	6
0	1030681	800	6
0	1074031	820	9
0	1119007	840	13
0	1164920	860	11
0	1211870	880	9
0	1259398	900	7
0	1308598	920	8
0	1358848	940	9
0	1410635	960	12
0	1463498	980	13
0	1516947	1000	9
0	1572169	1020	11
0	1628926	1040	11
0	1687223	1060	12
0	1746354	1080	17
0	1807353	1100	13
0	1870405	1120	13
0	1935051	1140	12
0	2001101	1160	9
0	2068317	1180	10
0	2137295	1200	11
0	2208848	1220	5
0	2281806	1240	7
0	2356715	1260	10
0	2433639	1280	9
0	2512405	1300	9
0	2593624	1320	10
0	2676936	1340	10
0	2761926	1360	11
0	2849308	1380	14
0	2938705	1400	8
0	3030066	1420	12
0	3123257	1440	13
0	3218325	1460	7
0	3315147	1480	13
0	3414717	1500	9
0	3517375	1520	12
0	3621518	1540	12
0	3727411	1560	9
0	3836536	1580	11
0	3947874	1600	11
0	4061904	1620	11
0	4177439	1640	15
0	4295399	1660	15
0	4415649	1680	9
0	4537931	1700	14
0	4662969	1720	13
0	4790391	1740	8
0	4920039	1760	10
0	5052124	1780	13
0	5186024	1800	12
0	5323070	1820	9
0	5461738	1840	12
0	5602326	1860	5
0	5746164	1880	14
0	5893534	1900	13
0	6042746	1920	9
0	6194547	1940	13
0	6350113	1960	13
0	6508215	1980	15
0	6668086	2000	15
1	145677	240	26
1	171543	260	49
1	198703	280	59
1	226003	300	46
1	253317	320	62
1	280513	340	49
1	307687	360	63
1	334767	380	74
1	362284	400	74
1	389801	420	47
1	417441	440	63
1	445708	460	79
1	474178	480	51
1	503285	500	51
1	533149	520	56
1	563298	540	39
1	593888	560	30
1	625189	580	65
1	657309	600	55
1	690155	620	67
1	724017	640	88
1	758010	660	48
1	794062	680	82
1	830502	700	47
1	867737	720	73
1	906902	740	83
1	946818	760	68
1	988321	780	87
1	1030681	800	83
1	1074031	820	73
1	1119007	840	99
1	1164920	860	107
1	1211870	880	92
1	1259398	900	80
1	1308598	920	71
1	1358848	940	90
1	1410635	960	112
1	1463498	980	104
1	1516947	1000	93
1	1572169	1020	103
1	1628926	1040	110
1	1687223	1060	95
1	1746354	1080	113
1	1807353	1100	81
1	1870405	1120	108
1	1935051	1140	92
1	2001101	1160	110
1	2068317	1180	107
1	2137295	1200	107
1	2208848	1220	64
1	2281806	1240	88
1	2356715	1260	96
1	2433639	1280	100
1	2512405	1300	114
1	2593624	1320	96
1	2676936	1340	102
1	2761926	1360	108
1	2849308	1380	123
1	2938705	1400	102
1	3030066	1420	107
1	3123257	1440	127
1	3218325	1460	90
1	3315147	1480	127
1	3414717	1500	107
1	3517375	1520	118
1	3621518	1540	123
1	3727411	1560	98
1	3836536	1580	137
1	3947874	1600	120
1	4061904	1620	110
1	4177439	1640	133
1	4295399	1660	134
1	4415649	1680	105
1	4537931	1700	132
1	4662969	1720	153
1	4790391	1740	102
1	4920039	1760	100
1	5052124	1780	123
1	5186024	1800	112
1	5323070	1820	106
1	5461738	1840	111
1	5602326	1860	75
1	5746164	1880	163
1	5893534	1900	148
1	6042746	1920	101
1	6194547	1940	143
1	6350113	1960	130
1	6508215	1980	153
1	6668086	2000	168
2	145677	240	50
2	171543	260	31
2	198703	280	28
2	226003	300	44
2	253317	320	27
2	280513	340	41
2	307687	360	25
2	334767	380	12
2	362284	400	11
2	389801	420	43
2	417441	440	26
2	445708	460	8
2	474178	480	39
2	503285	500	44
2	533149	520	38
2	563298	540	57
2	593888	560	70
2	625189	580	35
2	657309	600	43
2	690155	620	30
2	724017	640	10
2	758010	660	53
2	794062	680	21
2	830502	700	59
2	867737	720	31
2	906902	740	23
2	946818	760	40
2	988321	780	22
2	1030681	800	27
2	1074031	820	35
2	1119007	840	7
2	1164920	860	3
2	1211870	880	21
2	1259398	900	35
2	1308598	920	47
2	1358848	940	26
2	1410635	960	5
2	1463498	980	12
2	1516947	1000	26
2	1572169	1020	14
2	1628926	1040	11
2	1687223	1060	27
2	1746354	1080	6
2	1807353	1100	41
2	1870405	1120	16
2	1935051	1140	35
2	2001101	1160	22
2	2068317	1180	23
2	2137295	1200	22
2	2208848	1220	75
2	2281806	1240	49
2	2356715	1260	39
2	2433639	1280	37
2	2512405	1300	25
2	2593624	1320	43
2	2676936	1340	40
2	2761926	1360	33
2	2849308	1380	16
2	2938705	1400	44
2	3030066	1420	38
2	3123257	1440	17
2	3218325	1460	62
2	3315147	1480	19
2	3414717	1500	43
2	3517375	1520	32
2	3621518	1540	29
2	3727411	1560	57
2	3836536	1580	17
2	3947874	1600	35
2	4061904	1620	47
2	4177439	1640	19
2	4295399	1660	21
2	4415649	1680	58
2	4537931	1700	28
2	4662969	1720	8
2	4790391	1740	65
2	4920039	1760	68
2	5052124	1780	43
2	5186024	1800	54
2	5323070	1820	65
2	5461738	1840	58
2	5602326	1860	102
2	5746164	1880	6
2	5893534	1900	23
2	6042746	1920	75
2	6194547	1940	32
2	6350113	1960	45
2	6508215	1980	23
2	6668086	2000	8
3	145677	240	0
3	171543	260	0
3	198703	280	0
3	226003	300	1
3	253317	320	0
3	280513	340	0
3	307687	360	0
3	334767	380	0
3	362284	400	0
3	389801	420	0
3	417441	440	0
3	445708	460	0
3	474178	480	0
3	503285	500	0
3	533149	520	0
3	563298	540	0
3	593888	560	0
3	625189	580	0
3	657309	600	0
3	690155	620	0
3	724017	640	0
3	758010	660	0
3	794062	680	0
3	830502	700	0
3	867737	720	2
3	906902	740	0
3	946818	760	1
3	988321	780	0
3	1030681	800	0
3	1074031	820	0
3	1119007	840	0
3	1164920	860	1
3	1211870	880	0
3	1259398	900	0
3	1308598	920	1
3	1358848	940	0
3	1410635	960	2
3	1463498	980	1
3	1516947	1000	0
3	1572169	1020	0
3	1628926	1040	0
3	1687223	1060	0
3	1746354	1080	0
3	1807353	1100	0
3	1870405	1120	0
3	1935051	1140	0
3	2001101	1160	0
3	2068317	1180	1
3	2137295	1200	0
3	2208848	1220	0
3	2281806	1240	0
3	2356715	1260	0
3	2433639	1280	1
3	2512405	1300	0
3	2593624	1320	0
3	2676936	1340	0
3	2761926	1360	0
3	2849308	1380	0
3	2938705	1400	0
3	3030066	1420	0
3	3123257	1440	0
3	3218325	1460	0
3	3315147	1480	0
3	3414717	1500	0
3	3517375	1520	0
3	3621518	1540	1
3	3727411	1560	1
3	3836536	1580	0
3	3947874	1600	0
3	4061904	1620	0
3	4177439	1640	1
3	4295399	1660	0
3	4415649	1680	0
3	4537931	1700	1
3	4662969	1720	0
3	4790391	1740	0
3	4920039	1760	0
3	5052124	1780	0
3	5186024	1800	1
3	5323070	1820	0
3	5461738	1840	0
3	5602326	1860	0
3	5746164	1880	0
3	5893534	1900	0
3	6042746	1920	0
3	6194547	1940	1
3	6350113	1960	0
3	6508215	1980	0
3	6668086	2000	0
4	145677	240	50
4	171543	260	31
4	198703	280	28
4	226003	300	43
4	253317	320	27
4	280513	340	41
4	307687	360	25
4	334767	380	12
4	362284	400	11
4	389801	420	43
4	417441	440	26
4	445708	460	8
4	474178	480	39
4	503285	500	43
4	533149	520	36
4	563298	540	57
4	593888	560	70
4	625189	580	35
4	657309	600	41
4	690155	620	30
4	724017	640	9
4	758010	660	53
4	794062	680	21
4	830502	700	58
4	867737	720	29
4	906902	740	23
4	946818	760	39
4	988321	780	21
4	1030681	800	27
4	1074031	820	35
4	1119007	840	7
4	1164920	860	2
4	1211870	880	21
4	1259398	900	35
4	1308598	920	46
4	1358848	940	26
4	1410635	960	3
4	1463498	980	10
4	1516947	1000	26
4	1572169	1020	14
4	1628926	1040	10
4	1687223	1060	27
4	1746354	1080	6
4	1807353	1100	40
4	1870405	1120	16
4	1935051	1140	34
4	2001101	1160	21
4	2068317	1180	22
4	2137295	1200	22
4	2208848	1220	75
4	2281806	1240	49
4	2356715	1260	39
4	2433639	1280	36
4	2512405	1300	25
4	2593624	1320	43
4	2676936	1340	40
4	2761926	1360	33
4	2849308	1380	16
4	2938705	1400	44
4	3030066	1420	38
4	3123257	1440	17
4	3218325	1460	62
4	3315147	1480	19
4	3414717	1500	43
4	3517375	1520	31
4	3621518	1540	28
4	3727411	1560	54
4	3836536	1580	17
4	3947874	1600	34
4	4061904	1620	47
4	4177439	1640	18
4	4295399	1660	21
4	4415649	1680	58
4	4537931	1700	27
4	4662969	1720	8
4	4790391	1740	65
4	4920039	1760	66
4	5052124	1780	42
4	5186024	1800	53
4	5323070	1820	65
4	5461738	1840	58
4	5602326	1860	102
4	5746164	1880	6
4	5893534	1900	23
4	6042746	1920	75
4	6194547	1940	31
4	6350113	1960	45
4	6508215	1980	23
4	6668086	2000	8
5	145677	240	13
5	171543	260	9.8
5	198703	280	9.8333333333333
5	226003	300	11.5
5	253317	320	12.4
5	280513	340	8.1666666666667
5	307687	360	12.6
5	334767	380	9.25
5	362284	400	7.4
5	389801	420	9.4
5	417441	440	9
5	445708	460	9.875
5	474178	480	8.5
5	503285	500	12.75
5	533149	520	8
5	563298	540	9.75
5	593888	560	15
5	625189	580	13
5	657309	600	6.875
5	690155	620	6.7
5	724017	640	9.7777777777778
5	758010	660	8
5	794062	680	10.25
5	830502	700	11.75
5	867737	720	10.428571428571
5	906902	740	9.2222222222222
5	946818	760	9.7142857142857
5	988321	780	14.5
5	1030681	800	13.833333333333
5	1074031	820	8.1111111111111
5	1119007	840	7.6153846153846
5	1164920	860	9.7272727272727
5	1211870	880	10.222222222222
5	1259398	900	11.428571428571
5	1308598	920	8.875
5	1358848	940	10
5	1410635	960	9.3333333333333
5	1463498	980	8
5	1516947	1000	10.333333333333
5	1572169	1020	9.3636363636364
5	1628926	1040	10
5	1687223	1060	7.9166666666667
5	1746354	1080	6.6470588235294
5	1807353	1100	6.2307692307692
5	1870405	1120	8.3076923076923
5	1935051	1140	7.6666666666667
5	2001101	1160	12.222222222222
5	2068317	1180	10.7
5	2137295	1200	9.7272727272727
5	2208848	1220	12.8
5	2281806	1240	12.571428571429
5	2356715	1260	9.6
5	2433639	1280	11.111111111111
5	2512405	1300	12.666666666667
5	2593624	1320	9.6
5	2676936	1340	10.2
5	2761926	1360	9.8181818181818
5	2849308	1380	8.7857142857143
5	2938705	1400	12.75
5	3030066	1420	8.9166666666667
5	3123257	1440	9.7692307692308
5	3218325	1460	12.857142857143
5	3315147	1480	9.7692307692308
5	3414717	1500	11.888888888889
5	3517375	1520	9.8333333333333
5	3621518	1540	10.25
5	3727411	1560	10.888888888889
5	3836536	1580	12.454545454545
5	3947874	1600	10.909090909091
5	4061904	1620	10
5	4177439	1640	8.8666666666667
5	4295399	1660	8.9333333333333
5	4415649	1680	11.666666666667
5	4537931	1700	9.4285714285714
5	4662969	1720	11.769230769231
5	4790391	1740	12.75
5	4920039	1760	10
5	5052124	1780	9.4615384615385
5	5186024	1800	9.3333333333333
5	5323070	1820	11.777777777778
5	5461738	1840	9.25
5	5602326	1860	15
5	5746164	1880	11.642857142857
5	5893534	1900	11.384615384615
5	6042746	1920	11.222222222222
5	6194547	1940	11
5	6350113	1960	10
5	6508215	1980	10.2
5	6668086	2000	11.2
6	145677	240	2.8284271247462
6	171543	260	3.3466401061363
6	198703	280	4.4459719597256
6	226003	300	4.5092497528229
6	253317	320	3.286335345031
6	280513	340	5.5287129303905
6	307687	360	2.7928480087538
6	334767	380	4.7434164902526
6	362284	400	4.0606512887576
6	389801	420	4.8785243670602
6	417441	440	4.2426406871193
6	445708	460	4.3568501072613
6	474178	480	3.0822070014845
6	503285	500	0.95742710775634
6	533149	520	5.4772255750517
6	563298	540	4.2720018726588
6	593888	560	0
6	625189	580	2.1213203435596
6	657309	600	4.5178218519231
6	690155	620	4.3474130238568
6	724017	640	2.538591035288
6	758010	660	5.5497747702046
6	794062	680	4.6827952580239
6	830502	700	2.6299556396766
6	867737	720	5.3496773378446
6	906902	740	4.9187848544579
6	946818	760	4.8892496259408
6	988321	780	1.2247448713916
6	1030681	800	1.6020819787597
6	1074031	820	4.6487752269938
6	1119007	840	4.0112022623826
6	1164920	860	3.1651511525015
6	1211870	880	3.7675515184858
6	1259398	900	4.0766466144428
6	1308598	920	4.9117206760971
6	1358848	940	3.1224989991992
6	1410635	960	4.3969686527576
6	1463498	980	4.6904157598234
6	1516947	1000	3.5355339059327
6	1572169	1020	4.9854333266573
6	1628926	1040	4.1472882706655
6	1687223	1060	3.1176428547377
6	1746354	1080	3.0810139660221
6	1807353	1100	4.5305232617923
6	1870405	1120	4.0493747538893
6	1935051	1140	5.1404515778521
6	2001101	1160	2.7738861628489
6	2068317	1180	3.7431418769679
6	2137295	1200	3.901048810023
6	2208848	1220	2.588435821109
6	2281806	1240	2.3704530408864
6	2356715	1260	4.3256341860022
6	2433639	1280	3.5512126254438
6	2512405	1300	2.872281323269
6	2593624	1320	5.2535702146255
6	2676936	1340	4.4671641514003
6	2761926	1360	5.0560494819213
6	2849308	1380	4.9796288312186
6	2938705	1400	2.4928469095164
6	3030066	1420	5.2128919444242
6	3123257	1440	3.6321216516394
6	3218325	1460	2.2677868380554
6	3315147	1480	4.1059681390598
6	3414717	1500	5.4185894023363
6	3517375	1520	3.3799766898963
6	3621518	1540	4.0480073661449
6	3727411	1560	5.0607421502297
6	3836536	1580	2.8412545244535
6	3947874	1600	3.6181361349332
6	4061904	1620	4.8579831205964
6	4177439	1640	5.1251016250087
6	4295399	1660	3.8999389494611
6	4415649	1680	4.6904157598234
6	4537931	1700	5.1398037333718
6	4662969	1720	3.6549930723565
6	4790391	1740	2.6049403612586
6	4920039	1760	4.618802153517
6	5052124	1780	4.3515396626823
6	5186024	1800	5.2627910557963
6	5323070	1820	3.1135902820449
6	5461738	1840	5.2245051962319
6	5602326	1860	0
6	5746164	1880	3.6921359850184
6	5893534	1900	3.3798042728946
6	6042746	1920	3.6324157862839
6	6194547	1940	2.9439202887759
6	6350113	1960	4.3779751788546
6	6508215	1980	3.3636714634883
6	6668086	2000	3.7071359757712
7	145677	240	8
7	171543	260	11.2
7	198703	280	19.766666666667
7	226003	300	20.333333333333
7	253317	320	10.8
7	280513	340	30.566666666667
7	307687	360	7.8
7	334767	380	22.5
7	362284	400	16.488888888889
7	389801	420	23.8
7	417441	440	18
7	445708	460	18.982142857143
7	474178	480	9.5
7	503285	500	0.91666666666667
7	533149	520	30
7	563298	540	18.25
7	593888	560	0
7	625189	580	4.5
7	657309	600	20.410714285714
7	690155	620	18.9
7	724017	640	6.4444444444444
7	758010	660	30.8
7	794062	680	21.928571428571
7	830502	700	6.9166666666667
7	867737	720	28.619047619048
7	906902	740	24.194444444444
7	946818	760	23.904761904762
7	988321	780	1.5
7	1030681	800	2.5666666666667
7	1074031	820	21.611111111111
7	1119007	840	16.089743589744
7	1164920	860	10.018181818182
7	1211870	880	14.194444444444
7	1259398	900	16.619047619048
7	1308598	920	24.125
7	1358848	940	9.75
7	1410635	960	19.333333333333
7	1463498	980	22
7	1516947	1000	12.5
7	1572169	1020	24.854545454545
7	1628926	1040	17.2
7	1687223	1060	9.719696969697
7	1746354	1080	9.4926470588235
7	1807353	1100	20.525641025641
7	1870405	1120	16.397435897436
7	1935051	1140	26.424242424242
7	2001101	1160	7.6944444444444
7	2068317	1180	14.011111111111
7	2137295	1200	15.218181818182
7	2208848	1220	6.7
7	2281806	1240	5.6190476190476
7	2356715	1260	18.711111111111
7	2433639	1280	12.611111111111
7	2512405	1300	8.25
7	2593624	1320	27.6
7	2676936	1340	19.955555555556
7	2761926	1360	25.563636363636
7	2849308	1380	24.796703296703
7	2938705	1400	6.2142857142857
7	3030066	1420	27.174242424242
7	3123257	1440	13.192307692308
7	3218325	1460	5.1428571428571
7	3315147	1480	16.858974358974
7	3414717	1500	29.361111111111
7	3517375	1520	11.424242424242
7	3621518	1540	16.386363636364
7	3727411	1560	25.611111111111
7	3836536	1580	8.0727272727273
7	3947874	1600	13.090909090909
7	4061904	1620	23.6
7	4177439	1640	26.266666666667
7	4295399	1660	15.209523809524
7	4415649	1680	22
7	4537931	1700	26.417582417582
7	4662969	1720	13.358974358974
7	4790391	1740	6.7857142857143
7	4920039	1760	21.333333333333
7	5052124	1780	18.935897435897
7	5186024	1800	27.69696969697
7	5323070	1820	9.6944444444444
7	5461738	1840	27.295454545455
7	5602326	1860	0
7	5746164	1880	13.631868131868
7	5893534	1900	11.423076923077
7	6042746	1920	13.194444444444
7	6194547	1940	8.6666666666667
7	6350113	1960	19.166666666667
7	6508215	1980	11.314285714286
7	6668086	2000	13.742857142857
8	145677	240	22.730769230769
8	171543	260	22.670588235294
8	198703	280	22.268817204301
8	226003	300	22.212765957447
8	253317	320	22.053191489362
8	280513	340	22.072916666667
8	307687	360	22.430107526882
8	334767	380	22.159574468085
8	362284	400	22.568421052632
8	389801	420	22.368421052632
8	417441	440	22.3125
8	445708	460	22.378947368421
8	474178	480	22.333333333333
8	503285	500	22.061224489796
8	533149	520	22.757575757576
8	563298	540	22.67
8	593888	560	22.460784313725
8	625189	580	22.257142857143
8	657309	600	23.048076923077
8	690155	620	22.607476635514
8	724017	640	23.716981132075
8	758010	660	23.738317757009
8	794062	680	23.666666666667
8	830502	700	24.862385321101
8	867737	720	25.198198198198
8	906902	740	25.330434782609
8	946818	760	26.622807017544
8	988321	780	27.070175438596
8	1030681	800	27.336206896552
8	1074031	820	27.837606837607
8	1119007	840	28.302521008403
8	1164920	860	28.768595041322
8	1211870	880	28.655737704918
8	1259398	900	29.180327868852
8	1308598	920	29.134920634921
8	1358848	940	29.656
8	1410635	960	30.325581395349
8	1463498	980	30.8515625
8	1516947	1000	30.96875
8	1572169	1020	31.3046875
8	1628926	1040	31.809160305344
8	1687223	1060	32.022388059701
8	1746354	1080	32.176470588235
8	1807353	1100	33.231343283582
8	1870405	1120	33.481751824818
8	1935051	1140	34.36231884058
8	2001101	1160	35.05
8	2068317	1180	35.157142857143
8	2137295	1200	36.085714285714
8	2208848	1220	36.284722222222
8	2281806	1240	37.076388888889
8	2356715	1260	38.034482758621
8	2433639	1280	38.993150684932
8	2512405	1300	39.189189189189
8	2593624	1320	40.120805369128
8	2676936	1340	40.769736842105
8	2761926	1360	41.769736842105
8	2849308	1380	42.019607843137
8	2938705	1400	42.837662337662
8	3030066	1420	43.732484076433
8	3123257	1440	44.070063694268
8	3218325	1460	44.610062893082
8	3315147	1480	45.150943396226
8	3414717	1500	46.188679245283
8	3517375	1520	47.298136645963
8	3621518	1540	47.475609756098
8	3727411	1560	48.604938271605
8	3836536	1580	48.793939393939
8	3947874	1600	50.09696969697
8	4061904	1620	50.22619047619
8	4177439	1640	51
8	4295399	1660	51.1
8	4415649	1680	51.412790697674
8	4537931	1700	51.666666666667
8	4662969	1720	52.310344827586
8	4790391	1740	53.142857142857
8	4920039	1760	53.738636363636
8	5052124	1780	53.842696629213
8	5186024	1800	54.179775280899
8	5323070	1820	55.222222222222
8	5461738	1840	55.110497237569
8	5602326	1860	55.873626373626
8	5746164	1880	56.726775956284
8	5893534	1900	57.804347826087
8	6042746	1920	58.367567567568
8	6194547	1940	58.563829787234
8	6350113	1960	59.255319148936
8	6508215	1980	59.685863874346
8	6668086	2000	60.612565445026
9	145677	240	4.3683426585397
9	171543	260	4.4678434003286
9	198703	280	5.2152364258097
9	226003	300	4.5552105115845
9	253317	320	5.1019014403479
9	280513	340	4.8693343145308
9	307687	360	4.737449895255
9	334767	380	4.4920555715436
9	362284	400	4.2517896897083
9	389801	420	4.5195853499765
9	417441	440	4.9060918093841
9	445708	460	4.1951820069776
9	474178	480	4.5274988254041
9	503285	500	4.7986603081702
9	533149	520	4.4723433776455
9	563298	540	3.3606607094499
9	593888	560	3.8426258777283
9	625189	580	4.3765735003991
9	657309	600	3.227249896884
9	690155	620	3.9087637609096
9	724017	640	3.3658076706537
9	758010	660	3.2398941532854
9	794062	680	3.9389277113386
9	830502	700	3.5680368341923
9	867737	720	3.8490136158379
9	906902	740	5.4478737831079
9	946818	760	4.8360562278094
9	988321	780	5.7679604810142
9	1030681	800	6.5990038319593
9	1074031	820	6.4138283593655
9	1119007	840	7.3801780120104
9	1164920	860	7.9987085734495
9	1211870	880	8.6337512716977
9	1259398	900	8.1605950940056
9	1308598	920	9.299766168762
9	1358848	940	9.2065054138627
9	1410635	960	10.025874954569
9	1463498	980	9.5225301373393
9	1516947	1000	9.8460092239341
9	1572169	1020	10.097601331875
9	1628926	1040	10.679321862522
9	1687223	1060	11.722009641856
9	1746354	1080	11.872085125569
9	1807353	1100	11.736399378109
9	1870405	1120	12.327696095629
9	1935051	1140	13.41528816789
9	2001101	1160	13.794652806184
9	2068317	1180	14.003736104038
9	2137295	1200	14.266974347775
9	2208848	1220	15.507572341353
9	2281806	1240	15.884671707665
9	2356715	1260	16.031831960675
9	2433639	1280	16.722686046967
9	2512405	1300	17.315539539448
9	2593624	1320	18.000342621243
9	2676936	1340	18.8519749329
9	2761926	1360	18.889876189294
9	2849308	1380	19.762228255808
9	2938705	1400	20.283117284757
9	3030066	1420	21.122166678636
9	3123257	1440	21.437181529273
9	3218325	1460	21.841463283179
9	3315147	1480	22.435050752537
9	3414717	1500	22.555184032182
9	3517375	1520	23.273602192317
9	3621518	1540	24.178642712725
9	3727411	1560	24.602519192499
9	3836536	1580	24.946405227543
9	3947874	1600	25.409625658933
9	4061904	1620	25.988643853667
9	4177439	1640	26.048148189389
9	4295399	1660	26.459894850565
9	4415649	1680	26.742183845842
9	4537931	1700	26.798613831233
9	4662969	1720	26.966821980754
9	4790391	1740	27.652755321076
9	4920039	1760	27.522871244811
9	5052124	1780	27.287918262165
9	5186024	1800	27.723640933613
9	5323070	1820	28.093927763078
9	5461738	1840	28.054885696043
9	5602326	1860	28.010465033941
9	5746164	1880	28.292073482974
9	5893534	1900	29.160471459618
9	6042746	1920	29.589676281107
9	6194547	1940	29.610143698625
9	6350113	1960	30.150225004335
9	6508215	1980	30.378416145995
9	6668086	2000	30.353299468872
10	145677	240	19.082417582418
10	171543	260	19.96162464986
10	198703	280	27.198690977092
10	226003	300	20.74994280485
10	253317	320	26.029398307024
10	280513	340	23.710416666667
10	307687	360	22.443431510051
10	334767	380	20.178563257836
10	362284	400	18.07771556551
10	389801	420	20.426651735722
10	417441	440	24.069736842105
10	445708	460	17.599552071669
10	474178	480	20.498245614035
10	503285	500	23.027140753208
10	533149	520	20.00185528757
10	563298	540	11.29404040404
10	593888	560	14.765773636187
10	625189	580	19.154395604396
10	657309	600	10.415141896938
10	690155	620	15.2784341386
10	724017	640	11.328661275831
10	758010	660	10.496914124493
10	794062	680	15.515151515152
10	830502	700	12.730886850153
10	867737	720	14.814905814906
10	906902	740	29.679328756674
10	946818	760	23.387439838534
10	988321	780	33.269368110542
10	1030681	800	43.546851574213
10	1074031	820	41.137194223401
10	1119007	840	54.467027488962
10	1164920	860	63.979338842975
10	1211870	880	74.541661021542
10	1259398	900	66.595312288308
10	1308598	920	86.485650793651
10	1358848	940	84.759741935484
10	1410635	960	100.51816860465
10	1463498	980	90.678580216535
10	1516947	1000	96.943897637795
10	1572169	1020	101.96155265748
10	1628926	1040	114.04791544334
10	1687223	1060	137.40551004377
10	1746354	1080	140.94640522876
10	1807353	1100	137.74307036247
10	1870405	1120	151.97209102619
10	1935051	1140	179.96995662753
10	2001101	1160	190.29244604317
10	2068317	1180	196.10462487153
10	2137295	1200	203.54655704008
10	2208848	1220	240.4847999223
10	2281806	1240	252.3227952603
10	2356715	1260	257.01963601533
10	2433639	1280	279.64822862541
10	2512405	1300	299.8279095422
10	2593624	1320	324.01233448213
10	2676936	1340	355.39695887069
10	2761926	1360	356.82742244685
10	2849308	1380	390.54566563467
10	2938705	1400	411.4048467872
10	3030066	1420	446.14592520007
10	3123257	1440	459.55275191899
10	3218325	1460	477.04951835045
10	3315147	1480	503.33150226893
10	3414717	1500	508.73632672558
10	3517375	1520	541.66055900621
10	3621518	1540	584.6067634296
10	3727411	1560	605.28395061728
10	3836536	1580	622.32313377679
10	3947874	1600	645.64907612712
10	4061904	1620	675.40960935272
10	4177439	1640	678.50602409639
10	4295399	1660	700.12603550296
10	4415649	1680	715.14439684483
10	4537931	1700	718.16570327553
10	4662969	1720	727.20948774168
10	4790391	1740	764.67487684729
10	4920039	1760	757.50844155844
10	5052124	1780	744.63048308259
10	5186024	1800	768.60026661588
10	5323070	1820	789.26877715705
10	5461738	1840	787.07661141805
10	5602326	1860	784.58615141764
10	5746164	1880	800.44142196601
10	5893534	1900	850.33309574721
10	6042746	1920	875.54894242068
10	6194547	1940	876.76060985323
10	6350113	1960	909.03606781204
10	6508215	1980	922.84816753927
10	6668086	2000	921.32278864701
11	145677	240	91.844708393865
11	171543	260	228.56389209394
11	198703	280	279.22213795482
11	226003	300	179.42159491372
11	253317	320	230.64299812938
11	280513	340	281.52864027929
11	307687	360	228.94034110889
11	334767	380	375.61211550829
11	362284	400	468.98638915823
11	389801	420	230.18525262109
11	417441	440	319.53036607535
11	445708	460	373.58158968845
11	474178	480	287.04479057982
11	503285	500	183.306960482
11	533149	520	334.35418119622
11	563298	540	189.47898006724
11	593888	560	95.934656638287
11	625189	580	230.37342898587
11	657309	600	372.12885161807
11	690155	620	466.65263040332
11	724017	640	422.79258676634
11	758010	660	293.46864583619
11	794062	680	369.45218838072
11	830502	700	190.36358835187
11	867737	720	335.02659634738
11	906902	740	416.5787612777
11	946818	760	325.27611503682
11	988321	780	280.93084872046
11	1030681	800	281.10486000739
11	1074031	820	440.61695314368
11	1119007	840	623.02779540006
11	1164920	860	519.22994745946
11	1211870	880	423.15464936371
11	1259398	900	328.63464506836
11	1308598	920	388.69091160363
11	1358848	940	420.00432881924
11	1410635	960	566.19369753328
11	1463498	980	615.6144918036
11	1516947	1000	423.1482332644
11	1572169	1020	516.23752603797
11	1628926	1040	527.97863854937
11	1687223	1060	579.78228240084
11	1746354	1080	805.18277229651
11	1807353	1100	623.30294973319
11	1870405	1120	625.19702988983
11	1935051	1140	567.41751189942
11	2001101	1160	426.53589871699
11	2068317	1180	470.05059899457
11	2137295	1200	516.28461005731
11	2208848	1220	238.15144743116
11	2281806	1240	324.31573987837
11	2356715	1260	493.12242408742
11	2433639	1280	427.4393805862
11	2512405	1300	428.44035618916
11	2593624	1320	480.83678428377
11	2676936	1340	480.38470142319
11	2761926	1360	520.01017048957
11	2849308	1380	673.07304127872
11	2938705	1400	388.20881579074
11	3030066	1420	573.88371514305
11	3123257	1440	622.77543222272
11	3218325	1460	336.25003412977
11	3315147	1480	621.80411586389
11	3414717	1500	425.89444066525
11	3517375	1520	575.61825443369
11	3621518	1540	571.14307176884
11	3727411	1560	420.59011478375
11	3836536	1580	520.41815328378
11	3947874	1600	528.01606214314
11	4061904	1620	530.53170352507
11	4177439	1640	717.4333197529
11	4295399	1660	722.37359305719
11	4415649	1680	432.75959167912
11	4537931	1700	666.36385133233
11	4662969	1720	620.13163211484
11	4790391	1740	387.507896968
11	4920039	1760	475.49605032353
11	5052124	1780	637.46022513839
11	5186024	1800	571.64455319321
11	5323070	1820	430.50704682693
11	5461738	1840	574.22433407004
11	5602326	1860	234.33587400016
11	5746164	1880	668.07288412708
11	5893534	1900	617.36184478023
11	6042746	1920	423.20217287847
11	6194547	1940	613.79644919848
11	6350113	1960	615.86568458616
11	6508215	1980	710.85235916212
11	6668086	2000	713.54921916605
12	145677	240	45.922354196932
12	171543	260	45.712778418787
12	198703	280	46.537022992469
12	226003	300	44.855398728431
12	253317	320	46.128599625877
12	280513	340	46.921440046548
12	307687	360	45.788068221778
12	334767	380	46.951514438536
12	362284	400	46.898638915823
12	389801	420	46.037050524218
12	417441	440	45.647195153622
12	445708	460	46.697698711057
12	474178	480	47.840798429969
12	503285	500	45.8267401205
12	533149	520	47.764883028032
12	563298	540	47.369745016811
12	593888	560	47.967328319144
12	625189	580	46.074685797174
12	657309	600	46.516106452259
12	690155	620	46.665263040332
12	724017	640	46.976954085149
12	758010	660	48.911440972699
12	794062	680	46.18152354759
12	830502	700	47.590897087966
12	867737	720	47.86094233534
12	906902	740	46.286529030856
12	946818	760	46.468016433832
12	988321	780	46.821808120077
12	1030681	800	46.850810001232
12	1074031	820	48.957439238187
12	1119007	840	47.925215030774
12	1164920	860	47.202722496314
12	1211870	880	47.017183262635
12	1259398	900	46.947806438338
12	1308598	920	48.586363950453
12	1358848	940	46.667147646582
12	1410635	960	47.182808127774
12	1463498	980	47.35496090797
12	1516947	1000	47.016470362711
12	1572169	1020	46.93068418527
12	1628926	1040	47.998058049943
12	1687223	1060	48.31519020007
12	1746354	1080	47.36369248803
12	1807353	1100	47.946380748707
12	1870405	1120	48.092079222294
12	1935051	1140	47.284792658285
12	2001101	1160	47.392877635221
12	2068317	1180	47.005059899457
12	2137295	1200	46.934964550664
12	2208848	1220	47.630289486231
12	2281806	1240	46.330819982625
12	2356715	1260	49.312242408742
12	2433639	1280	47.493264509578
12	2512405	1300	47.604484021017
12	2593624	1320	48.083678428377
12	2676936	1340	48.038470142319
12	2761926	1360	47.273651862688
12	2849308	1380	48.076645805623
12	2938705	1400	48.526101973842
12	3030066	1420	47.823642928587
12	3123257	1440	47.90580247867
12	3218325	1460	48.035719161395
12	3315147	1480	47.831085835683